 [ defaults ] 
; nbfunc        comb-rule       gen-pairs       fudgeLJ fudgeQQ
1               2               yes             0.5     0.8333

[ atomtypes ]
Br           35      79.90   0.0000  A  0.00000e+00  0.00000e+00
sBr          35      79.90   0.0000  A  0.00000e+00  0.00000e+00
C            6       12.01   0.0000  A  3.39967e-01  3.59824e-01
sC           6       12.01   0.0000  A  3.39967e-01  3.59824e-01
C6           6       12.01   0.0000  A  3.39967e-01  3.59824e-01
sC6          6       12.01   0.0000  A  3.39967e-01  3.59824e-01
C5           6       12.01   0.0000  A  3.39967e-01  3.59824e-01
sC5          6       12.01   0.0000  A  3.39967e-01  3.59824e-01
CA           6       12.01   0.0000  A  3.39967e-01  3.59824e-01
sCA          6       12.01   0.0000  A  3.39967e-01  3.59824e-01
CB           6       12.01   0.0000  A  3.39967e-01  3.59824e-01
sCB          6       12.01   0.0000  A  3.39967e-01  3.59824e-01
CC           6       12.01   0.0000  A  3.39967e-01  3.59824e-01
sCC          6       12.01   0.0000  A  3.39967e-01  3.59824e-01
CK           6       12.01   0.0000  A  3.39967e-01  3.59824e-01
sCK          6       12.01   0.0000  A  3.39967e-01  3.59824e-01
CM           6       12.01   0.0000  A  3.39967e-01  3.59824e-01
sCM          6       12.01   0.0000  A  3.39967e-01  3.59824e-01
CN           6       12.01   0.0000  A  3.39967e-01  3.59824e-01
sCN          6       12.01   0.0000  A  3.39967e-01  3.59824e-01
CQ           6       12.01   0.0000  A  3.39967e-01  3.59824e-01
sCQ          6       12.01   0.0000  A  3.39967e-01  3.59824e-01
CR           6       12.01   0.0000  A  3.39967e-01  3.59824e-01
sCR          6       12.01   0.0000  A  3.39967e-01  3.59824e-01
CT           6       12.01   0.0000  A  3.39967e-01  4.57730e-01
sCT          6       12.01   0.0000  A  3.39967e-01  4.57730e-01
C1           6       12.01   0.0000  A  3.39967e-01  4.57730e-01
sC1          6       12.01   0.0000  A  3.39967e-01  4.57730e-01
C3           6       12.01   0.0000  A  3.39967e-01  4.57730e-01
sC3          6       12.01   0.0000  A  3.39967e-01  4.57730e-01
C4           6       12.01   0.0000  A  3.39967e-01  4.57730e-01
sC4          6       12.01   0.0000  A  3.39967e-01  4.57730e-01
C7           6       12.01   0.0000  A  3.39967e-01  4.57730e-01
sC7          6       12.01   0.0000  A  3.39967e-01  4.57730e-01
C8           6       12.01   0.0000  A  3.39967e-01  4.57730e-01
sC8          6       12.01   0.0000  A  3.39967e-01  4.57730e-01
C9           6       12.01   0.0000  A  3.39967e-01  4.57730e-01
sC9          6       12.01   0.0000  A  3.39967e-01  4.57730e-01
CV           6       12.01   0.0000  A  3.39967e-01  3.59824e-01
sCV          6       12.01   0.0000  A  3.39967e-01  3.59824e-01
CW           6       12.01   0.0000  A  3.39967e-01  3.59824e-01
sCW          6       12.01   0.0000  A  3.39967e-01  3.59824e-01
C*           6       12.01   0.0000  A  3.39967e-01  3.59824e-01
sC*          6       12.01   0.0000  A  3.39967e-01  3.59824e-01
C0           20      40.08   0.0000  A  3.05240e-01  1.92376e+00
sC0          20      40.08   0.0000  A  3.05240e-01  1.92376e+00
F            9       19.00   0.0000  A  3.11815e-01  2.55224e-01
sF           9       19.00   0.0000  A  3.11815e-01  2.55224e-01
H            1       1.008   0.0000  A  1.06908e-01  6.56888e-02
sH           1       1.008   0.0000  A  1.06908e-01  6.56888e-02
HB           1       1.008   0.0000  A  1.06908e-01  6.56888e-02
sHB          1       1.008   0.0000  A  1.06908e-01  6.56888e-02
HC           1       1.008   0.0000  A  2.64953e-01  6.56888e-02
sHC          1       1.008   0.0000  A  2.64953e-01  6.56888e-02
H1           1       1.008   0.0000  A  2.47135e-01  6.56888e-02
sH1          1       1.008   0.0000  A  2.47135e-01  6.56888e-02
H2           1       1.008   0.0000  A  2.29317e-01  6.56888e-02
sH2          1       1.008   0.0000  A  2.29317e-01  6.56888e-02
H3           1       1.008   0.0000  A  2.11499e-01  6.56888e-02
sH3          1       1.008   0.0000  A  2.11499e-01  6.56888e-02
HA           1       1.008   0.0000  A  2.59964e-01  6.27600e-02
sHA          1       1.008   0.0000  A  2.59964e-01  6.27600e-02
H4           1       1.008   0.0000  A  2.51055e-01  6.27600e-02
sH4          1       1.008   0.0000  A  2.51055e-01  6.27600e-02
H5           1       1.008   0.0000  A  2.42146e-01  6.27600e-02
sH5          1       1.008   0.0000  A  2.42146e-01  6.27600e-02
HO           1       1.008   0.0000  A  0.00000e+00  0.00000e+00
sHO          1       1.008   0.0000  A  0.00000e+00  0.00000e+00
HS           1       1.008   0.0000  A  1.06908e-01  6.56888e-02
sHS          1       1.008   0.0000  A  1.06908e-01  6.56888e-02
HW           1       1.008   0.0000  A  0.00000e+00  0.00000e+00
sHW          1       1.008   0.0000  A  0.00000e+00  0.00000e+00
HP           1       1.008   0.0000  A  1.95998e-01  6.56888e-02
sHP          1       1.008   0.0000  A  1.95998e-01  6.56888e-02
I            53      126.9   0.0000  A  4.18722e-01  1.67360e+00
sI           53      126.9   0.0000  A  4.18722e-01  1.67360e+00
Cl           17      35.45   0.0000  A  4.40104e-01  4.18400e-01
sCl          17      35.45   0.0000  A  4.40104e-01  4.18400e-01
Na           11      22.99   0.0000  A  3.32840e-01  1.15897e-02
sNa          11      22.99   0.0000  A  3.32840e-01  1.15897e-02
IB           0       131.0   0.0000  A  8.90899e-01  4.18400e-01
sIB          0       131.0   0.0000  A  8.90899e-01  4.18400e-01
MG           12     24.305   0.0000  A  1.41225e-01  3.74342e+00
sMG          12     24.305   0.0000  A  1.41225e-01  3.74342e+00
N            7       14.01   0.0000  A  3.25000e-01  7.11280e-01
sN           7       14.01   0.0000  A  3.25000e-01  7.11280e-01
NA           7       14.01   0.0000  A  3.25000e-01  7.11280e-01
sNA          7       14.01   0.0000  A  3.25000e-01  7.11280e-01
NB           7       14.01   0.0000  A  3.25000e-01  7.11280e-01
sNB          7       14.01   0.0000  A  3.25000e-01  7.11280e-01
NC           7       14.01   0.0000  A  3.25000e-01  7.11280e-01
sNC          7       14.01   0.0000  A  3.25000e-01  7.11280e-01
N2           7       14.01   0.0000  A  3.25000e-01  7.11280e-01
sN2          7       14.01   0.0000  A  3.25000e-01  7.11280e-01
N3           7       14.01   0.0000  A  3.25000e-01  7.11280e-01
sN3          7       14.01   0.0000  A  3.25000e-01  7.11280e-01
N*           7       14.01   0.0000  A  3.25000e-01  7.11280e-01
sN*          7       14.01   0.0000  A  3.25000e-01  7.11280e-01
O            8       16.00   0.0000  A  2.95992e-01  8.78640e-01
sO           8       16.00   0.0000  A  2.95992e-01  8.78640e-01
OB           8       16.00   0.0000  A  2.95992e-01  8.78640e-01
sOB          8       16.00   0.0000  A  2.95992e-01  8.78640e-01
OW           8       16.00   0.0000  A  3.15061e-01  6.36386e-01
sOW          8       16.00   0.0000  A  3.15061e-01  6.36386e-01
OH           8       16.00   0.0000  A  3.06647e-01  8.80314e-01
sOH          8       16.00   0.0000  A  3.06647e-01  8.80314e-01
O3           8       16.00   0.0000  A  3.06647e-01  8.80314e-01
sO3          8       16.00   0.0000  A  3.06647e-01  8.80314e-01
OS           8       16.00   0.0000  A  3.00001e-01  7.11280e-01
sOS          8       16.00   0.0000  A  3.00001e-01  7.11280e-01
O2           8       16.00   0.0000  A  2.95992e-01  8.78640e-01
sO2          8       16.00   0.0000  A  2.95992e-01  8.78640e-01
P            15      30.97   0.0000  A  3.74177e-01  8.36800e-01
sP           15      30.97   0.0000  A  3.74177e-01  8.36800e-01
S            16      32.06   0.0000  A  3.56359e-01  1.04600e+00
sS           16      32.06   0.0000  A  3.56359e-01  1.04600e+00
SH           16      32.06   0.0000  A  3.56359e-01  1.04600e+00
sSH          16      32.06   0.0000  A  3.56359e-01  1.04600e+00
CU           29      63.55   0.0000  A  3.39967e-01  3.59824e-01
sCU          29      63.55   0.0000  A  3.39967e-01  3.59824e-01
FE           26      55.00   0.0000  A  0.00000e+00  0.00000e+00
sFE          26      55.00   0.0000  A  0.00000e+00  0.00000e+00
K            19      39.10   0.0000  A  4.73602e-01  1.37235e-03
sK           19      39.10   0.0000  A  4.73602e-01  1.37235e-03
Rb           37      85.47   0.0000  A  5.26699e-01  7.11280e-04
sRb          37      85.47   0.0000  A  5.26699e-01  7.11280e-04
Cs           55     132.91   0.0000  A  6.04920e-01  3.37230e-04
sCs          55     132.91   0.0000  A  6.04920e-01  3.37230e-04
OW_spc       8      15.9994   0.0000  A  3.16557e-01  6.50629e-01
sOW_spc      8      15.9994   0.0000  A  3.16557e-01  6.50629e-01
HW_spc       1      1.0080   0.0000  A  0.00000e+00  0.00000e+00
sHW_spc      1      1.0080   0.0000  A  0.00000e+00  0.00000e+00
Li           3        6.94   0.0000  A  2.02590e-01  7.65672e-02
sLi          3        6.94   0.0000  A  2.02590e-01  7.65672e-02
Zn           30       65.4   0.0000  A  1.95998e-01  5.23000e-02
sZn          30       65.4   0.0000  A  1.95998e-01  5.23000e-02
HW_tip4pew   1       1.008   0.0000  A  0.00000e+00  0.00000e+00
sHW_tip4pew  1       1.008   0.0000  A  0.00000e+00  0.00000e+00
OW_tip4pew   8       16.00   0.0000  A  3.16435e-01  6.80946e-01
sOW_tip4pew  8       16.00   0.0000  A  3.16435e-01  6.80946e-01
HW_tip4p     1       1.008   0.0000  A  0.00000e+00  0.00000e+00
sHW_tip4p    1       1.008   0.0000  A  0.00000e+00  0.00000e+00
OW_tip4p     8       16.00   0.0000  A  3.15365e-01  6.48520e-01
sOW_tip4p    8       16.00   0.0000  A  3.15365e-01  6.48520e-01
HW_tip5p     1       1.008   0.0000  A  0.00000e+00  0.00000e+00
sHW_tip5p    1       1.008   0.0000  A  0.00000e+00  0.00000e+00
OW_tip5p     8       16.00   0.0000  A  3.12000e-01  6.69440e-01
sOW_tip5p    8       16.00   0.0000  A  3.12000e-01  6.69440e-01
HW_tip4pd    1       1.008   0.0000  A  0.00000e+00  0.00000e+00
sHW_tip4pd   1       1.008   0.0000  A  0.00000e+00  0.00000e+00
OW_tip4pd    8       16.00   0.0000  A  3.16500e-01  9.98989e-01
sOW_tip4pd   8       16.00   0.0000  A  3.16500e-01  9.98989e-01
MW           0      0.0000   0.0000  A  0.00000e+00  0.00000e+00
sMW          0      0.0000   0.0000  A  0.00000e+00  0.00000e+00
MCH3         0      0.0000   0.0000  A  0.00000e+00  0.00000e+00
sMCH3        0      0.0000   0.0000  A  0.00000e+00  0.00000e+00
MNH3         0      0.0000   0.0000  A  0.00000e+00  0.00000e+00
sMNH3        0      0.0000   0.0000  A  0.00000e+00  0.00000e+00
c3           c3     0.00000  0.00000  A  3.39967e-01  4.57730e-01
sc3          c3     0.00000  0.00000  A  3.39967e-01  1.09400e-01
hc           hc     0.00000  0.00000  A  2.64953e-01  6.56888e-02
shc          hc     0.00000  0.00000  A  2.64953e-01  1.57000e-02
c            c      0.00000  0.00000  A  3.39967e-01  3.59824e-01
sc           c      0.00000  0.00000  A  3.39967e-01  8.60000e-02
o            o      0.00000  0.00000  A  2.95992e-01  8.78640e-01
so           o      0.00000  0.00000  A  2.95992e-01  2.10000e-01
n            n      0.00000  0.00000  A  3.25000e-01  7.11280e-01
sn           n      0.00000  0.00000  A  3.25000e-01  1.70000e-01
h1           h1     0.00000  0.00000  A  2.47135e-01  6.56888e-02
sh1          h1     0.00000  0.00000  A  2.47135e-01  1.57000e-02
ca           ca     0.00000  0.00000  A  3.39967e-01  3.59824e-01
sca          ca     0.00000  0.00000  A  3.39967e-01  8.60000e-02
ha           ha     0.00000  0.00000  A  2.59964e-01  6.27600e-02
sha          ha     0.00000  0.00000  A  2.59964e-01  1.50000e-02
sy           sy     0.00000  0.00000  A  3.56359e-01  1.04600e+00
ssy          sy     0.00000  0.00000  A  3.56359e-01  2.50000e-01
n3           n3     0.00000  0.00000  A  3.25000e-01  7.11280e-01
sn3          n3     0.00000  0.00000  A  3.25000e-01  1.70000e-01
hx           hx     0.00000  0.00000  A  1.95998e-01  6.56888e-02
shx          hx     0.00000  0.00000  A  1.95998e-01  1.57000e-02
n4           n4     0.00000  0.00000  A  3.25000e-01  7.11280e-01
sn4          n4     0.00000  0.00000  A  3.25000e-01  1.70000e-01
hn           hn     0.00000  0.00000  A  1.06908e-01  6.56888e-02
shn          hn     0.00000  0.00000  A  1.06908e-01  1.57000e-02

[ nonbond_params ]
  OB   HB     1      0.150   1.2552
  sOB  sHB     1      0.150   1.2552

 [ bondtypes ] 
; i    j  func       b0          kb
 C   C1      1    0.15220  265265.6  ; Amber99Sb-disp
 C1  H1      1    0.10900  284512.0  ; Amber99Sb-disp
 C1  N       1    0.14490  282001.6  ; Amber99Sb-disp
 C1  N3      1    0.14710  307105.6  ; Amber99Sb-disp
 HO  O3      1    0.09600  462750.4  ; Amber99Sb-disp
 C8  O3      1    0.14100  267776.0  ; Amber99Sb-disp
 C8  OH      1    0.14100  267776.0  ; Amber99Sb-disp
 CT  C8      1    0.15260  259408.0  ; Amber99Sb-disp
 CT  C9      1    0.15260  259408.0  ; Amber99Sb-disp
 C9  HC      1    0.10900  284512.0  ; Amber99Sb-disp
 C9  H1      1    0.10900  284512.0  ; Amber99Sb-disp
 C9  S       1    0.18100  189953.6  ; Amber99Sb-disp
 C9  C       1    0.15220  265265.6  ; Amber99Sb-disp
 C8  H1      1    0.10900  284512.0  ; Amber99Sb-disp
 C8  HC      1    0.10900  284512.0  ; Amber99Sb-disp
 OW  HW      1    0.09572  462750.4  ; Amber99Sb-disp
 HW  HW      1    0.15136  462750.4  ; Amber99Sb-disp
 C   C       1    0.15250  259408.0  ; Amber99Sb-disp
 C   CA      1    0.14090  392459.2  ; Amber99Sb-disp
 C   CB      1    0.14190  374049.6  ; Amber99Sb-disp
 C   CM      1    0.14440  343088.0  ; Amber99Sb-disp
 C   CT      1    0.15220  265265.6  ; Amber99Sb-disp
 C   N       1    0.13350  410032.0  ; Amber99Sb-disp
 C   N*      1    0.13830  354803.2  ; Amber99Sb-disp
 C   NA      1    0.13880  349782.4  ; Amber99Sb-disp
 C   NC      1    0.13580  382417.6  ; Amber99Sb-disp
 C   O       1    0.12290  476976.0  ; Amber99Sb-disp
 C   OB      1    0.12290  476976.0  ; Amber99Sb-disp
 C   O2      1    0.12500  548940.8  ; Amber99Sb-disp
 C   OH      1    0.13640  376560.0  ; Amber99Sb-disp
 C   OS      1    0.13230  376560.0  ; Amber99Sb-disp
 C   H4      1    0.10800  307105.6  ; Amber99Sb-disp
 C   H5      1    0.10800  307105.6  ; Amber99Sb-disp
 CA  CA      1    0.14000  392459.2  ; Amber99Sb-disp
 CA  CB      1    0.14040  392459.2  ; Amber99Sb-disp
 CA  CM      1    0.14330  357313.6  ; Amber99Sb-disp
 CA  CN      1    0.14000  392459.2  ; Amber99Sb-disp
 CA  CT      1    0.15100  265265.6  ; Amber99Sb-disp
 CA  HA      1    0.10800  307105.6  ; Amber99Sb-disp
 CA  H4      1    0.10800  307105.6  ; Amber99Sb-disp
 CA  N2      1    0.13400  402500.8  ; Amber99Sb-disp
 CA  NA      1    0.13810  357313.6  ; Amber99Sb-disp
 CA  NC      1    0.13390  404174.4  ; Amber99Sb-disp
 CA  OH      1    0.13640  376560.0  ; Amber99Sb-disp
 CB  CB      1    0.13700  435136.0  ; Amber99Sb-disp
 CB  N*      1    0.13740  364844.8  ; Amber99Sb-disp
 CB  NB      1    0.13910  346435.2  ; Amber99Sb-disp
 CB  NC      1    0.13540  385764.8  ; Amber99Sb-disp
 CK  H5      1    0.10800  307105.6  ; Amber99Sb-disp
 CK  N*      1    0.13710  368192.0  ; Amber99Sb-disp
 CK  NB      1    0.13040  442667.2  ; Amber99Sb-disp
 CM  CM      1    0.13500  459403.2  ; Amber99Sb-disp
 CM  CT      1    0.15100  265265.6  ; Amber99Sb-disp
 CM  HA      1    0.10800  307105.6  ; Amber99Sb-disp
 CM  H4      1    0.10800  307105.6  ; Amber99Sb-disp
 CM  H5      1    0.10800  307105.6  ; Amber99Sb-disp
 CM  N*      1    0.13650  374886.4  ; Amber99Sb-disp
 CM  OS      1    0.12400  401664.0  ; Amber99Sb-disp
 CQ  H5      1    0.10800  307105.6  ; Amber99Sb-disp
 CQ  NC      1    0.13240  420073.6  ; Amber99Sb-disp
 CT  CT      1    0.15260  259408.0  ; Amber99Sb-disp
 CT  HC      1    0.10900  284512.0  ; Amber99Sb-disp
 CT  H1      1    0.10900  284512.0  ; Amber99Sb-disp
 CT  H2      1    0.10900  284512.0  ; Amber99Sb-disp
 CT  H3      1    0.10900  284512.0  ; Amber99Sb-disp
 CT  HP      1    0.10900  284512.0  ; Amber99Sb-disp
 CT  N*      1    0.14750  282001.6  ; Amber99Sb-disp
 CT  N2      1    0.14630  282001.6  ; Amber99Sb-disp
 CT  OH      1    0.14100  267776.0  ; Amber99Sb-disp
 CT  OS      1    0.14100  267776.0  ; Amber99Sb-disp
 C*  HC      1    0.10800  307105.6  ; Amber99Sb-disp
 C*  CB      1    0.14590  324678.4  ; Amber99Sb-disp
 C*  CT      1    0.14950  265265.6  ; Amber99Sb-disp
 C*  CW      1    0.13520  456892.8  ; Amber99Sb-disp
 CB  CN      1    0.14190  374049.6  ; Amber99Sb-disp
 CC  CT      1    0.15040  265265.6  ; Amber99Sb-disp
 CC  CV      1    0.13750  428441.6  ; Amber99Sb-disp
 CC  CW      1    0.13710  433462.4  ; Amber99Sb-disp
 CC  NA      1    0.13850  353129.6  ; Amber99Sb-disp
 CC  NB      1    0.13940  343088.0  ; Amber99Sb-disp
 CN  NA      1    0.13800  358150.4  ; Amber99Sb-disp
 CR  H5      1    0.10800  307105.6  ; Amber99Sb-disp
 CR  NA      1    0.13430  399153.6  ; Amber99Sb-disp
 CR  NB      1    0.13350  408358.4  ; Amber99Sb-disp
 CT  N       1    0.14490  282001.6  ; Amber99Sb-disp
 CT  N3      1    0.14710  307105.6  ; Amber99Sb-disp
 CT  S       1    0.18100  189953.6  ; Amber99Sb-disp
 CT  SH      1    0.18100  198321.6  ; Amber99Sb-disp
 CV  H4      1    0.10800  307105.6  ; Amber99Sb-disp
 CV  NB      1    0.13940  343088.0  ; Amber99Sb-disp
 CW  H4      1    0.10800  307105.6  ; Amber99Sb-disp
 CW  NA      1    0.13810  357313.6  ; Amber99Sb-disp
 O2  P       1    0.14800  439320.0  ; Amber99Sb-disp
 OH  P       1    0.16100  192464.0  ; Amber99Sb-disp
 OS  P       1    0.16100  192464.0  ; Amber99Sb-disp
 H   N2      1    0.10100  363171.2  ; Amber99Sb-disp
 H   N*      1    0.10100  363171.2  ; Amber99Sb-disp
 H   NA      1    0.10100  363171.2  ; Amber99Sb-disp
 H   N       1    0.10100  363171.2  ; Amber99Sb-disp
 HB  N       1    0.10100  363171.2  ; Amber99Sb-disp
 H   N3      1    0.10100  363171.2  ; Amber99Sb-disp
 HO  OH      1    0.09600  462750.4  ; Amber99Sb-disp
 HO  OS      1    0.09600  462750.4  ; Amber99Sb-disp
 HS  SH      1    0.13360  229283.2  ; Amber99Sb-disp
 S   S       1    0.20380  138908.8  ; Amber99Sb-disp
 F   CT      1    0.13800  307105.6  ; Amber99Sb-disp
 Cl  CT      1    0.17660  194137.6  ; Amber99Sb-disp
 Br  CT      1    0.19440  133051.2  ; Amber99Sb-disp
 I   CT      1    0.21660  123846.4  ; Amber99Sb-disp
 F   CA      1    0.13590  323004.8  ; Amber99Sb-disp
 Cl  CA      1    0.17270  161502.4  ; Amber99Sb-disp
 I   CA      1    0.20750  143092.8  ; Amber99Sb-disp
 Br  CA      1    0.18900  143929.6  ; Amber99Sb-disp
 C7  CT      1    0.15260  259408.0  ; Amber99Sb-disp
 C   C7      1    0.15220  265265.6  ; Amber99Sb-disp
 C7  H1      1    0.10900  284512.0  ; Amber99Sb-disp
 C7  HP      1    0.10900  284512.0  ; Amber99Sb-disp
 C7  N       1    0.14490  282001.6  ; Amber99Sb-disp
 C7  N3      1    0.14710  307105.6  ; Amber99Sb-disp
 C3  HC      1    0.10900  284512.0  ; Amber99Sb-disp
 C4  HC      1    0.10900  284512.0  ; Amber99Sb-disp
 CT  C3      1    0.15260  259408.0  ; Amber99Sb-disp
 CT  C4      1    0.15260  259408.0  ; Amber99Sb-disp
 C6  O2      1    0.12500  548940.8  ; Amber99Sb-disp
 CC  O2      1    0.12500  548940.8  ; Amber99Sb-disp
 C5  O       1    0.12290  476976.0  ; Amber99Sb-disp
 C5  N       1    0.13350  410032.0  ; Amber99Sb-disp
 C5  CT      1    0.15220  265265.6  ; Amber99Sb-disp
 C6  CT      1    0.15220  265265.6  ; Amber99Sb-disp
 C1  HP      1    0.10900  284512.0  ; Amber99Sb-disp

 [ constrainttypes ] 
; this section is implemented manually from bond * angle values
; constraints for rigid CH3 groups
 MCH3   CT      2    0.166426
 MCH3   S       2    0.193875
 MCH3   MCH3    2    0.092163
; constraints for rigid NH3 groups
 MNH3   CT      2    0.158254
 MNH3   MNH3    2    0.080229
; angle-derived constraints for OH and SH groups in proteins
; The constraint A-C is calculated from the angle A-B-C and bonds A-B, B-C.
  C     HO      2    0.195074
  CA    HO      2    0.195074
  CT    HO      2    0.194132
  CT    HS      2    0.235935

 [ angletypes ] 
;  i    j    k  func       th0       cth
 C1  C   OH     1    110.000  669.440  ; Amber99Sb-disp
 C1  C   O      1    120.400  669.440  ; Amber99Sb-disp
 C1  C   OB     1    120.400  669.440  ; Amber99Sb-disp
 C1  C   O2     1    117.000  585.760  ; Amber99Sb-disp
 C1  C   N      1    116.600  585.760  ; Amber99Sb-disp
 H1  C1  H1     1    109.500  292.880  ; Amber99Sb-disp
 H1  C1  N      1    109.500  418.400  ; Amber99Sb-disp
 H1  C1  N3     1    109.500  418.400  ; Amber99Sb-disp
 C   C1  H1     1    109.500  418.400  ; Amber99Sb-disp
 C   C1  N      1    110.100  527.184  ; Amber99Sb-disp
 C   C1  N3     1    111.200  669.440  ; Amber99Sb-disp
 C   N   C1     1    121.900  418.400  ; Amber99Sb-disp
 C1  N   H      1    118.040  418.400  ; Amber99Sb-disp
 C1  N   HB     1    118.040  418.400  ; Amber99Sb-disp
 C1  N3  H      1    109.500  418.400  ; Amber99Sb-disp
 H1  C8  H1     1    109.500  292.880  ; Amber99Sb-disp
 H1  C8  O3     1    109.500  418.400  ; Amber99Sb-disp
 CT  C8  O3     1    109.500  418.400  ; Amber99Sb-disp
 C8  O3  HO     1    108.500  460.240  ; Amber99Sb-disp
 H1  C8  OH     1    109.500  418.400  ; Amber99Sb-disp
 CT  C8  OH     1    109.500  418.400  ; Amber99Sb-disp
 C8  OH  HO     1    108.500  460.240  ; Amber99Sb-disp
 CT  C8  CT     1    109.500  334.720  ; Amber99Sb-disp
 CT  C8  H1     1    109.500  418.400  ; Amber99Sb-disp
 CT  C8  HC     1    109.500  418.400  ; Amber99Sb-disp
 CT  C9  H1     1    109.500  418.400  ; Amber99Sb-disp
 H1  C9  S      1    109.500  418.400  ; Amber99Sb-disp
 CT  C9  S      1    114.700  418.400  ; Amber99Sb-disp
 C9  S   CT     1     98.900  518.816  ; Amber99Sb-disp
 CT  C9  HC     1    109.500  418.400  ; Amber99Sb-disp
 CT  C9  CT     1    109.500  334.720  ; Amber99Sb-disp
 C9  CT  CT     1    109.500  334.720  ; Amber99Sb-disp
 HC  C9  HC     1    109.500  292.880  ; Amber99Sb-disp
 C9  CT  HC     1    109.500  418.400  ; Amber99Sb-disp
 C9  CT  H1     1    109.500  418.400  ; Amber99Sb-disp
 H1  C9  H1     1    109.500  292.880  ; Amber99Sb-disp
 C9  C   O      1    120.400  669.440  ; Amber99Sb-disp
 C9  C   O2     1    117.000  585.760  ; Amber99Sb-disp
 C9  C   OH     1    110.000  669.440  ; Amber99Sb-disp
 C9  C   N      1    116.600  585.760  ; Amber99Sb-disp
 C   C9  CT     1    111.100  527.184  ; Amber99Sb-disp
 C   C9  HC     1    109.500  418.400  ; Amber99Sb-disp
 C9  CT  N2     1    111.200  669.440  ; Amber99Sb-disp
 C8  CT  N      1    109.700  669.440  ; Amber99Sb-disp
 C   CT  C8     1    111.100  527.184  ; Amber99Sb-disp
 C8  CT  HC     1    109.500  418.400  ; Amber99Sb-disp
 C8  CT  H1     1    109.500  418.400  ; Amber99Sb-disp
 H4  C   N      1    120.000  418.400  ; Amber99Sb-disp
 HW  OW  HW     1    104.520  836.800  ; Amber99Sb-disp
 HW  HW  OW     1    127.740    0.000  ; Amber99Sb-disp
 C   C   O      1    120.000  669.440  ; Amber99Sb-disp
 C   C   OH     1    120.000  669.440  ; Amber99Sb-disp
 CA  C   CA     1    120.000  527.184  ; Amber99Sb-disp
 CA  C   OH     1    120.000  585.760  ; Amber99Sb-disp
 CB  C   NA     1    111.300  585.760  ; Amber99Sb-disp
 CB  C   O      1    128.800  669.440  ; Amber99Sb-disp
 CM  C   NA     1    114.100  585.760  ; Amber99Sb-disp
 CM  C   O      1    125.300  669.440  ; Amber99Sb-disp
 CT  C   O      1    120.400  669.440  ; Amber99Sb-disp
 CT  C   OB     1    120.400  669.440  ; Amber99Sb-disp
 CT  C   O2     1    117.000  585.760  ; Amber99Sb-disp
 CT  C   N      1    116.600  585.760  ; Amber99Sb-disp
 CT  C   CT     1    117.000  527.184  ; Amber99Sb-disp
 CT  C   OS     1    115.000  669.440  ; Amber99Sb-disp
 CT  C   OH     1    110.000  669.440  ; Amber99Sb-disp
 N*  C   NA     1    115.400  585.760  ; Amber99Sb-disp
 N*  C   NC     1    118.600  585.760  ; Amber99Sb-disp
 N*  C   O      1    120.900  669.440  ; Amber99Sb-disp
 NA  C   O      1    120.600  669.440  ; Amber99Sb-disp
 NC  C   O      1    122.500  669.440  ; Amber99Sb-disp
 N   C   O      1    122.900  669.440  ; Amber99Sb-disp
 N   C   OB     1    122.900  669.440  ; Amber99Sb-disp
 O   C   O      1    126.000  669.440  ; Amber99Sb-disp
 O   C   OH     1    120.000  669.440  ; Amber99Sb-disp
 O   C   OS     1    125.000  669.440  ; Amber99Sb-disp
 O2  C   O2     1    126.000  669.440  ; Amber99Sb-disp
 H4  C   C      1    120.000  418.400  ; Amber99Sb-disp
 H4  C   CM     1    115.000  418.400  ; Amber99Sb-disp
 H4  C   CT     1    115.000  418.400  ; Amber99Sb-disp
 H4  C   O      1    120.000  418.400  ; Amber99Sb-disp
 H4  C   OH     1    120.000  418.400  ; Amber99Sb-disp
 H5  C   N      1    120.000  418.400  ; Amber99Sb-disp
 H5  C   O      1    119.000  418.400  ; Amber99Sb-disp
 H5  C   OH     1    107.000  418.400  ; Amber99Sb-disp
 H5  C   OS     1    107.000  418.400  ; Amber99Sb-disp
 C   CA  CA     1    120.000  527.184  ; Amber99Sb-disp
 C   CA  HA     1    120.000  418.400  ; Amber99Sb-disp
 CA  CA  CA     1    120.000  527.184  ; Amber99Sb-disp
 CA  CA  CB     1    120.000  527.184  ; Amber99Sb-disp
 CA  CA  CT     1    120.000  585.760  ; Amber99Sb-disp
 CA  CA  HA     1    120.000  418.400  ; Amber99Sb-disp
 CA  CA  H4     1    120.000  418.400  ; Amber99Sb-disp
 CA  CA  OH     1    120.000  585.760  ; Amber99Sb-disp
 CA  CA  CN     1    120.000  527.184  ; Amber99Sb-disp
 CB  CA  HA     1    120.000  418.400  ; Amber99Sb-disp
 CB  CA  H4     1    120.000  418.400  ; Amber99Sb-disp
 CB  CA  N2     1    123.500  585.760  ; Amber99Sb-disp
 CB  CA  NC     1    117.300  585.760  ; Amber99Sb-disp
 CM  CA  N2     1    120.100  585.760  ; Amber99Sb-disp
 CM  CA  NC     1    121.500  585.760  ; Amber99Sb-disp
 CN  CA  HA     1    120.000  418.400  ; Amber99Sb-disp
 NA  CA  NC     1    123.300  585.760  ; Amber99Sb-disp
 N2  CA  NA     1    116.000  585.760  ; Amber99Sb-disp
 N2  CA  NC     1    119.300  585.760  ; Amber99Sb-disp
 N2  CA  N2     1    120.000  585.760  ; Amber99Sb-disp
 F   CA  CA     1    121.000  585.760  ; Amber99Sb-disp
 Cl  CA  CA     1    118.800  585.760  ; Amber99Sb-disp
 I   CA  CA     1    118.800  585.760  ; Amber99Sb-disp
 C   CB  CB     1    119.200  527.184  ; Amber99Sb-disp
 C   CB  NB     1    130.000  585.760  ; Amber99Sb-disp
 CA  CB  CB     1    117.300  527.184  ; Amber99Sb-disp
 CA  CB  NB     1    132.400  585.760  ; Amber99Sb-disp
 CB  CB  N*     1    106.200  585.760  ; Amber99Sb-disp
 CB  CB  NB     1    110.400  585.760  ; Amber99Sb-disp
 CB  CB  NC     1    127.700  585.760  ; Amber99Sb-disp
 C*  CB  CA     1    134.900  527.184  ; Amber99Sb-disp
 C*  CB  CN     1    108.800  527.184  ; Amber99Sb-disp
 CA  CB  CN     1    116.200  527.184  ; Amber99Sb-disp
 N*  CB  NC     1    126.200  585.760  ; Amber99Sb-disp
 H5  CK  N*     1    123.050  418.400  ; Amber99Sb-disp
 H5  CK  NB     1    123.050  418.400  ; Amber99Sb-disp
 N*  CK  NB     1    113.900  585.760  ; Amber99Sb-disp
 C   CM  CM     1    120.700  527.184  ; Amber99Sb-disp
 C   CM  CT     1    119.700  585.760  ; Amber99Sb-disp
 C   CM  HA     1    119.700  418.400  ; Amber99Sb-disp
 C   CM  H4     1    119.700  418.400  ; Amber99Sb-disp
 CA  CM  CM     1    117.000  527.184  ; Amber99Sb-disp
 CA  CM  HA     1    123.300  418.400  ; Amber99Sb-disp
 CA  CM  H4     1    123.300  418.400  ; Amber99Sb-disp
 CM  CM  CT     1    119.700  585.760  ; Amber99Sb-disp
 CM  CM  HA     1    119.700  418.400  ; Amber99Sb-disp
 CM  CM  H4     1    119.700  418.400  ; Amber99Sb-disp
 CM  CM  N*     1    121.200  585.760  ; Amber99Sb-disp
 CM  CM  OS     1    125.000  669.440  ; Amber99Sb-disp
 H4  CM  N*     1    119.100  418.400  ; Amber99Sb-disp
 H4  CM  OS     1    113.000  418.400  ; Amber99Sb-disp
 HA  CM  HA     1    120.000  292.880  ; Amber99Sb-disp
 HA  CM  CT     1    120.000  418.400  ; Amber99Sb-disp
 NC  CQ  NC     1    129.100  585.760  ; Amber99Sb-disp
 H5  CQ  NC     1    115.450  418.400  ; Amber99Sb-disp
 H1  CT  H1     1    109.500  292.880  ; Amber99Sb-disp
 H1  CT  N*     1    109.500  418.400  ; Amber99Sb-disp
 H1  CT  OH     1    109.500  418.400  ; Amber99Sb-disp
 H1  CT  OS     1    109.500  418.400  ; Amber99Sb-disp
 H1  CT  CM     1    109.500  418.400  ; Amber99Sb-disp
 H1  CT  N      1    109.500  418.400  ; Amber99Sb-disp
 H1  CT  S      1    109.500  418.400  ; Amber99Sb-disp
 H1  CT  SH     1    109.500  418.400  ; Amber99Sb-disp
 H1  CT  N2     1    109.500  418.400  ; Amber99Sb-disp
 H2  CT  H2     1    109.500  292.880  ; Amber99Sb-disp
 H2  CT  N*     1    109.500  418.400  ; Amber99Sb-disp
 H2  CT  OS     1    109.500  418.400  ; Amber99Sb-disp
 HP  CT  HP     1    109.500  292.880  ; Amber99Sb-disp
 HP  CT  N3     1    109.500  418.400  ; Amber99Sb-disp
 HC  CT  HC     1    109.500  292.880  ; Amber99Sb-disp
 HC  CT  CM     1    109.500  418.400  ; Amber99Sb-disp
 C   CT  H1     1    109.500  418.400  ; Amber99Sb-disp
 C   CT  HP     1    109.500  418.400  ; Amber99Sb-disp
 C   CT  HC     1    109.500  418.400  ; Amber99Sb-disp
 C   CT  N      1    110.100  527.184  ; Amber99Sb-disp
 C   CT  N3     1    111.200  669.440  ; Amber99Sb-disp
 C   CT  CT     1    111.100  527.184  ; Amber99Sb-disp
 C   CT  OS     1    109.500  502.080  ; Amber99Sb-disp
 CA  CT  HC     1    109.500  418.400  ; Amber99Sb-disp
 CC  CT  CT     1    113.100  527.184  ; Amber99Sb-disp
 CC  CT  HC     1    109.500  418.400  ; Amber99Sb-disp
 CM  CT  CT     1    111.000  527.184  ; Amber99Sb-disp
 CM  CT  OS     1    109.500  418.400  ; Amber99Sb-disp
 CT  CT  CT     1    109.500  334.720  ; Amber99Sb-disp
 CT  CT  HC     1    109.500  418.400  ; Amber99Sb-disp
 CT  CT  H1     1    109.500  418.400  ; Amber99Sb-disp
 CT  CT  H2     1    109.500  418.400  ; Amber99Sb-disp
 CT  CT  HP     1    109.500  418.400  ; Amber99Sb-disp
 CT  CT  N*     1    109.500  418.400  ; Amber99Sb-disp
 CT  CT  OH     1    109.500  418.400  ; Amber99Sb-disp
 CT  CT  OS     1    109.500  418.400  ; Amber99Sb-disp
 CT  CT  S      1    114.700  418.400  ; Amber99Sb-disp
 CT  CT  SH     1    108.600  418.400  ; Amber99Sb-disp
 CT  CT  CA     1    114.000  527.184  ; Amber99Sb-disp
 CT  CT  N2     1    111.200  669.440  ; Amber99Sb-disp
 CT  CT  N      1    109.700  669.440  ; Amber99Sb-disp
 CT  CT  N3     1    111.200  669.440  ; Amber99Sb-disp
 C*  CT  CT     1    115.600  527.184  ; Amber99Sb-disp
 C*  CT  HC     1    109.500  418.400  ; Amber99Sb-disp
 OS  CT  OS     1    101.000 1338.880  ; Amber99Sb-disp
 OS  CT  N*     1    109.500  418.400  ; Amber99Sb-disp
 F   CT  F      1    109.100  644.336  ; Amber99Sb-disp
 F   CT  H1     1    109.500  418.400  ; Amber99Sb-disp
 F   CT  CT     1    109.000  418.400  ; Amber99Sb-disp
 F   CT  H2     1    109.500  418.400  ; Amber99Sb-disp
 Cl  CT  CT     1    108.500  418.400  ; Amber99Sb-disp
 Cl  CT  H1     1    108.500  418.400  ; Amber99Sb-disp
 I   CT  CT     1    106.000  418.400  ; Amber99Sb-disp
 CT  CC  NA     1    120.000  585.760  ; Amber99Sb-disp
 CT  CC  CV     1    120.000  585.760  ; Amber99Sb-disp
 CT  CC  NB     1    120.000  585.760  ; Amber99Sb-disp
 CV  CC  NA     1    120.000  585.760  ; Amber99Sb-disp
 CW  CC  NA     1    120.000  585.760  ; Amber99Sb-disp
 CW  CC  NB     1    120.000  585.760  ; Amber99Sb-disp
 CT  CC  CW     1    120.000  585.760  ; Amber99Sb-disp
 H5  CR  NA     1    120.000  418.400  ; Amber99Sb-disp
 H5  CR  NB     1    120.000  418.400  ; Amber99Sb-disp
 NA  CR  NA     1    120.000  585.760  ; Amber99Sb-disp
 NA  CR  NB     1    120.000  585.760  ; Amber99Sb-disp
 CC  CV  H4     1    120.000  418.400  ; Amber99Sb-disp
 CC  CV  NB     1    120.000  585.760  ; Amber99Sb-disp
 H4  CV  NB     1    120.000  418.400  ; Amber99Sb-disp
 CC  CW  H4     1    120.000  418.400  ; Amber99Sb-disp
 CC  CW  NA     1    120.000  585.760  ; Amber99Sb-disp
 C*  CW  H4     1    120.000  418.400  ; Amber99Sb-disp
 C*  CW  NA     1    108.700  585.760  ; Amber99Sb-disp
 H4  CW  NA     1    120.000  418.400  ; Amber99Sb-disp
 CB  C*  CT     1    128.600  585.760  ; Amber99Sb-disp
 CB  C*  CW     1    106.400  527.184  ; Amber99Sb-disp
 CT  C*  CW     1    125.000  585.760  ; Amber99Sb-disp
 CA  CN  CB     1    122.700  527.184  ; Amber99Sb-disp
 CA  CN  NA     1    132.800  585.760  ; Amber99Sb-disp
 CB  CN  NA     1    104.400  585.760  ; Amber99Sb-disp
 C   N   CT     1    121.900  418.400  ; Amber99Sb-disp
 C   N   H      1    120.000  418.400  ; Amber99Sb-disp
 C   N   HB     1    120.000  418.400  ; Amber99Sb-disp
 CT  N   H      1    118.040  418.400  ; Amber99Sb-disp
 CT  N   HB     1    118.040  418.400  ; Amber99Sb-disp
 CT  N   CT     1    118.000  418.400  ; Amber99Sb-disp
 H   N   H      1    120.000  292.880  ; Amber99Sb-disp
 C   N*  CM     1    121.600  585.760  ; Amber99Sb-disp
 C   N*  CT     1    117.600  585.760  ; Amber99Sb-disp
 C   N*  H      1    119.200  418.400  ; Amber99Sb-disp
 CB  N*  CK     1    105.400  585.760  ; Amber99Sb-disp
 CB  N*  CT     1    125.800  585.760  ; Amber99Sb-disp
 CB  N*  H      1    125.800  418.400  ; Amber99Sb-disp
 CK  N*  CT     1    128.800  585.760  ; Amber99Sb-disp
 CK  N*  H      1    128.800  418.400  ; Amber99Sb-disp
 CM  N*  CT     1    121.200  585.760  ; Amber99Sb-disp
 CM  N*  H      1    121.200  418.400  ; Amber99Sb-disp
 CA  N2  H      1    120.000  418.400  ; Amber99Sb-disp
 CA  N2  CT     1    123.200  418.400  ; Amber99Sb-disp
 CT  N2  H      1    118.400  418.400  ; Amber99Sb-disp
 H   N2  H      1    120.000  292.880  ; Amber99Sb-disp
 CT  N3  H      1    109.500  418.400  ; Amber99Sb-disp
 CT  N3  CT     1    109.500  418.400  ; Amber99Sb-disp
 H   N3  H      1    109.500  292.880  ; Amber99Sb-disp
 C   NA  C      1    126.400  585.760  ; Amber99Sb-disp
 C   NA  CA     1    125.200  585.760  ; Amber99Sb-disp
 C   NA  H      1    116.800  418.400  ; Amber99Sb-disp
 CA  NA  H      1    118.000  418.400  ; Amber99Sb-disp
 CC  NA  CR     1    120.000  585.760  ; Amber99Sb-disp
 CC  NA  H      1    120.000  418.400  ; Amber99Sb-disp
 CR  NA  CW     1    120.000  585.760  ; Amber99Sb-disp
 CR  NA  H      1    120.000  418.400  ; Amber99Sb-disp
 CW  NA  H      1    120.000  418.400  ; Amber99Sb-disp
 CN  NA  CW     1    111.600  585.760  ; Amber99Sb-disp
 CN  NA  H      1    123.100  418.400  ; Amber99Sb-disp
 CB  NB  CK     1    103.800  585.760  ; Amber99Sb-disp
 CC  NB  CR     1    117.000  585.760  ; Amber99Sb-disp
 CR  NB  CV     1    117.000  585.760  ; Amber99Sb-disp
 C   NC  CA     1    120.500  585.760  ; Amber99Sb-disp
 CA  NC  CB     1    112.200  585.760  ; Amber99Sb-disp
 CA  NC  CQ     1    118.600  585.760  ; Amber99Sb-disp
 CB  NC  CQ     1    111.000  585.760  ; Amber99Sb-disp
 C   OH  HO     1    113.000  418.400  ; Amber99Sb-disp
 CA  OH  HO     1    113.000  418.400  ; Amber99Sb-disp
 CT  OH  HO     1    108.500  460.240  ; Amber99Sb-disp
 HO  OH  P      1    108.500  376.560  ; Amber99Sb-disp
 C   OS  CT     1    117.000  502.080  ; Amber99Sb-disp
 CM  OS  CT     1    117.000  502.080  ; Amber99Sb-disp
 CT  OS  CT     1    109.500  502.080  ; Amber99Sb-disp
 CT  OS  P      1    120.500  836.800  ; Amber99Sb-disp
 P   OS  P      1    120.500  836.800  ; Amber99Sb-disp
 O2  P   OH     1    108.230  376.560  ; Amber99Sb-disp
 O2  P   O2     1    119.900 1171.520  ; Amber99Sb-disp
 O2  P   OS     1    108.230  836.800  ; Amber99Sb-disp
 OH  P   OS     1    102.600  376.560  ; Amber99Sb-disp
 OS  P   OS     1    102.600  376.560  ; Amber99Sb-disp
 CT  S   CT     1     98.900  518.816  ; Amber99Sb-disp
 CT  S   S      1    103.700  569.024  ; Amber99Sb-disp
 CT  SH  HS     1     96.000  359.824  ; Amber99Sb-disp
 HS  SH  HS     1     92.070  292.880  ; Amber99Sb-disp
 C7  C   O      1    120.400  669.440  ; Amber99Sb-disp
 C7  C   OB     1    120.400  669.440  ; Amber99Sb-disp
 C7  C   O2     1    117.000  585.760  ; Amber99Sb-disp
 C7  C   N      1    116.600  585.760  ; Amber99Sb-disp
 H1  C7  H1     1    109.500  292.880  ; Amber99Sb-disp
 H1  C7  N      1    109.500  418.400  ; Amber99Sb-disp
 HP  C7  HP     1    109.500  292.880  ; Amber99Sb-disp
 HP  C7  N3     1    109.500  418.400  ; Amber99Sb-disp
 C   C7  H1     1    109.500  418.400  ; Amber99Sb-disp
 C   C7  HP     1    109.500  418.400  ; Amber99Sb-disp
 C   C7  N      1    110.100  527.184  ; Amber99Sb-disp
 C   C7  N3     1    111.200  669.440  ; Amber99Sb-disp
 C   N   C7     1    121.900  418.400  ; Amber99Sb-disp
 C7  N   H      1    118.040  418.400  ; Amber99Sb-disp
 C7  N   HB     1    118.040  418.400  ; Amber99Sb-disp
 C7  N3  H      1    109.500  418.400  ; Amber99Sb-disp
 C7  N   CT     1    118.000  418.400  ; Amber99Sb-disp
 C7  N3  CT     1    109.500  418.400  ; Amber99Sb-disp
 CT  C7  N3     1    111.200  669.440  ; Amber99Sb-disp
 CT  C7  HP     1    109.500  418.400  ; Amber99Sb-disp
 C7  CT  CT     1    109.500  334.720  ; Amber99Sb-disp
 C7  CT  HC     1    109.500  418.400  ; Amber99Sb-disp
 CT  C7  N      1    109.700  669.440  ; Amber99Sb-disp
 C   C7  CT     1    111.100  527.184  ; Amber99Sb-disp
 CT  C7  H1     1    109.500  418.400  ; Amber99Sb-disp
 CT  C5  O      1    120.400  669.440  ; Amber99Sb-disp
 CT  C6  O2     1    117.000  585.760  ; Amber99Sb-disp
 CT  CC  O2     1    117.000  585.760  ; Amber99Sb-disp
 CT  C5  N      1    116.600  585.760  ; Amber99Sb-disp
 N   C5  O      1    122.900  669.440  ; Amber99Sb-disp
 O2  C6  O2     1    126.000  669.440  ; Amber99Sb-disp
 O2  CC  O2     1    126.000  669.440  ; Amber99Sb-disp
 HC  C3  HC     1    109.500  292.880  ; Amber99Sb-disp
 C5  CT  HC     1    109.500  418.400  ; Amber99Sb-disp
 C6  CT  HC     1    109.500  418.400  ; Amber99Sb-disp
 C5  CT  CT     1    111.100  527.184  ; Amber99Sb-disp
 C6  CT  CT     1    111.100  527.184  ; Amber99Sb-disp
 CT  C4  CT     1    109.500  334.720  ; Amber99Sb-disp
 CT  CT  C4     1    109.500  334.720  ; Amber99Sb-disp
 C4  CT  HC     1    109.500  418.400  ; Amber99Sb-disp
 CT  C4  HC     1    109.500  418.400  ; Amber99Sb-disp
 CT  CT  C3     1    109.500  334.720  ; Amber99Sb-disp
 CT  C3  HC     1    109.500  418.400  ; Amber99Sb-disp
 C3  CT  HC     1    109.500  418.400  ; Amber99Sb-disp
 C5  N   H      1    120.000  418.400  ; Amber99Sb-disp
 C5  N   HB     1    120.000  418.400  ; Amber99Sb-disp
 HP  C1  HP     1    109.500  292.880  ; Amber99Sb-disp
 HP  C1  N3     1    109.500  418.400  ; Amber99Sb-disp
 C   C1  HP     1    109.500  418.400  ; Amber99Sb-disp
 CT  C1  HP     1    109.500  418.400  ; Amber99Sb-disp

[ dihedraltypes ]
C C1 N O 4 180.0 4.60240 2   sC   sC1    sN    sO     4    4.60240   4.602     2
C C1 N OB 4 180.0 4.60240 2   sC   sC1    sN   sOB     4    4.60240   4.602     2
C C1 N H 4 180.0 4.60240 2   sC   sC1    sN    sH     4    4.60240   4.602     2
C C1 N HB 4 180.0 4.60240 2   sC   sC1    sN   sHB     4    4.60240   4.602     2
C9 O C OH 4 180.0 43.93200 2  sC9    sO    sC   sOH     4    43.93200  43.932    2
CB CK N* CT 4 180.0 4.18400 2  sCB   sCK   sN*   sCT     4    4.18400   4.184     2
C CM N* CT 4 180.0 4.18400 2   sC   sCM   sN*   sCT     4    4.18400   4.184     2
CT O C OH 4 180.0 43.93200 2  sCT    sO    sC   sOH     4    43.93200  43.932    2
CT CV CC NA 4 180.0 4.60240 2  sCT   sCV   sCC   sNA     4    4.60240   4.602     2
CT CW CC NB 4 180.0 4.60240 2  sCT   sCW   sCC   sNB     4    4.60240   4.602     2
CT CC CW NB 4 180.0 4.60240 2  sCT   sCC   sCW   sNB     4    4.60240   4.602     2
CT CW CC NA 4 180.0 4.60240 2  sCT   sCW   sCC   sNA     4    4.60240   4.602     2
CB CT C* CW 4 180.0 4.60240 2  sCB   sCT   sC*   sCW     4    4.60240   4.602     2
CA CA CA CT 4 180.0 4.60240 2  sCA   sCA   sCA   sCT     4    4.60240   4.602     2
C CM CM CT 4 180.0 4.60240 2   sC   sCM   sCM   sCT     4    4.60240   4.602     2
CM N2 CA NC 4 180.0 4.60240 2  sCM   sN2   sCA   sNC     4    4.60240   4.602     2
CB N2 CA NC 4 180.0 4.60240 2  sCB   sN2   sCA   sNC     4    4.60240   4.602     2
N2 NA CA NC 4 180.0 4.60240 2  sN2   sNA   sCA   sNC     4    4.60240   4.602     2
CA CA C OH 4 180.0 4.60240 2  sCA   sCA    sC   sOH     4    4.60240   4.602     2
CA CA CA OH 4 180.0 4.60240 2  sCA   sCA   sCA   sOH     4    4.60240   4.602     2
H5 O C OH 4 180.0 4.60240 2  sH5    sO    sC   sOH     4    4.60240   4.602     2
H5 O C OS 4 180.0 4.60240 2  sH5    sO    sC   sOS     4    4.60240   4.602     2
CM CT CM HA 4 180.0 4.60240 2  sCM   sCT   sCM   sHA     4    4.60240   4.602     2
Br CA CA CA 4 180.0 4.60240 2  sBr   sCA   sCA   sCA     4    4.60240   4.602     2
CM H4 C O 4 180.0 4.60240 2  sCM   sH4    sC    sO     4    4.60240   4.602     2
C CT N H 4 180.0 4.60240 2   sC   sCT    sN    sH     4    4.60240   4.602     2
C CT N HB 4 180.0 4.60240 2   sC   sCT    sN   sHB     4    4.60240   4.602     2
C CT N O 4 180.0 4.60240 2   sC   sCT    sN    sO     4    4.60240   4.602     2
C C7 N O 4 180.0 4.60240 2   sC   sC7    sN    sO     4    4.60240   4.602     2
C CT N OB 4 180.0 4.60240 2   sC   sCT    sN   sOB     4    4.60240   4.602     2
C C7 N OB 4 180.0 4.60240 2   sC   sC7    sN   sOB     4    4.60240   4.602     2
C C7 N H 4 180.0 4.60240 2   sC   sC7    sN    sH     4    4.60240   4.602     2
C C7 N HB 4 180.0 4.60240 2   sC   sC7    sN   sHB     4    4.60240   4.602     2
C5 CT N O 4 180.0 4.60240 2  sC5   sCT    sN    sO     4    4.60240   4.602     2
C5 CT N OB 4 180.0 4.60240 2  sC5   sCT    sN   sOB     4    4.60240   4.602     2
C5 CT N H 4 180.0 4.60240 2  sC5   sCT    sN    sH     4    4.60240   4.602     2
C5 CT N HB 4 180.0 4.60240 2  sC5   sCT    sN   sHB     4    4.60240   4.602     2
X CT N C1 4 180.0 4.18400 2    X   sCT    sN   sC1     4    4.18400   4.184     2
X CT N C7 4 180.0 4.18400 2    X   sCT    sN   sC7     4    4.18400   4.184     2
X O2 C6 O2 4 180.0 43.93200 2    X   sO2   sC6   sO2     4    43.93200  43.932    2
X O2 C O2 4 180.0 43.93200 2    X   sO2    sC   sO2     4    43.93200  43.932    2
X N2 CA N2 4 180.0 43.93200 2    X   sN2   sCA   sN2     4    43.93200  43.932    2
X CT N CT 4 180.0 4.18400 2    X   sCT    sN   sCT     4    4.18400   4.184     2
X X C O 4 180.0 43.93200 2    X     X    sC    sO     4    43.93200  43.932    2
X X C OB 4 180.0 43.93200 2    X     X    sC   sOB     4    43.93200  43.932    2
X X N H 4 180.0 4.18400 2    X     X    sN    sH     4    4.18400   4.184     2
X X N2 H 4 180.0 4.18400 2    X     X   sN2    sH     4    4.18400   4.184     2
X X NA H 4 180.0 4.18400 2    X     X   sNA    sH     4    4.18400   4.184     2
X X CA HA 4 180.0 4.60240 2    X     X   sCA   sHA     4    4.60240   4.602     2
X X CW H4 4 180.0 4.60240 2    X     X   sCW   sH4     4    4.60240   4.602     2
X X CR H5 4 180.0 4.60240 2    X     X   sCR   sH5     4    4.60240   4.602     2
X X CV H4 4 180.0 4.60240 2    X     X   sCV   sH4     4    4.60240   4.602     2
X X CQ H5 4 180.0 4.60240 2    X     X   sCQ   sH5     4    4.60240   4.602     2
X X CK H5 4 180.0 4.60240 2    X     X   sCK   sH5     4    4.60240   4.602     2
X X CM H4 4 180.0 4.60240 2    X     X   sCM   sH4     4    4.60240   4.602     2
X X CM HA 4 180.0 4.60240 2    X     X   sCM   sHA     4    4.60240   4.602     2
X X CA H4 4 180.0 4.60240 2    X     X   sCA   sH4     4    4.60240   4.602     2
X X CA H5 4 180.0 4.60240 2    X     X   sCA   sH5     4    4.60240   4.602     2
X X C5 O 4 180.0 43.93200 2    X     X   sC5    sO     4    43.93200  43.932    2
C8 CT C N 9 0.0 0.83680 1  sC8   sCT    sC    sN     9    0.83680   0.837     1
C8 CT C N 9 0.0 0.83680 2  sC8   sCT    sC    sN     9    0.83680   0.837     2
C8 CT C N 9 0.0 1.67360 3  sC8   sCT    sC    sN     9    1.67360   1.674     3
C8 CT N C 9 0.0 8.36800 1  sC8   sCT    sN    sC     9    8.36800   8.368     1
C8 CT N C 9 0.0 8.36800 2  sC8   sCT    sN    sC     9    8.36800   8.368     2
C8 CT N C 9 0.0 1.67360 3  sC8   sCT    sN    sC     9    1.67360   1.674     3
C CT C8 O3 9 180.0 4.18400 1   sC   sCT   sC8   sO3     9    4.18400   4.184     1
C CT C8 OH 9 180.0 3.76560 1   sC   sCT   sC8   sOH     9    3.76560   3.766     1
C CT CT C4 9 0.0 2.39074 1   sC   sCT   sCT   sC4     9    2.39074   2.391     1
C CT CT C4 9 180.0 1.49913 2   sC   sCT   sCT   sC4     9    1.49913   1.499     2
C CT CT C4 9 0.0 0.56400 3   sC   sCT   sCT   sC4     9    0.56400   0.564     3
C CT CT C5 9 0.0 0.71421 1   sC   sCT   sCT   sC5     9    0.71421   0.714     1
C CT CT C5 9 180.0 2.49241 2   sC   sCT   sCT   sC5     9    2.49241   2.492     2
C CT CT C5 9 0.0 0.49580 3   sC   sCT   sCT   sC5     9    0.49580   0.496     3
C CT CT C5 9 180.0 1.74556 4   sC   sCT   sCT   sC5     9    1.74556   1.746     4
C CT CT C5 9 0.0 0.43597 5   sC   sCT   sCT   sC5     9    0.43597   0.436     5
C CT CT C5 9 180.0 0.42142 6   sC   sCT   sCT   sC5     9    0.42142   0.421     6
C CT CT C* 9 0.0 1.21336 1   sC   sCT   sCT   sC*     9    1.21336   1.213     1
C CT CT C9 9 0.0 1.25520 1   sC   sCT   sCT   sC9     9    1.25520   1.255     1
C CT CT CA 9 0.0 2.17568 1   sC   sCT   sCT   sCA     9    2.17568   2.176     1
C CT CT CC 9 0.0 2.92880 1   sC   sCT   sCT   sCC     9    2.92880   2.929     1
C CT CT SH 9 180.0 0.66944 1   sC   sCT   sCT   sSH     9    0.66944   0.669     1
Cl CT CT Cl 9 180.0 1.88280 1  sCl   sCT   sCT   sCl     9    1.88280   1.883     1
CM CM C O 9 180.0 9.10020 2  sCM   sCM    sC    sO     9    9.10020   9.100     2
CM CM C O 9 0.0 1.25520 3  sCM   sCM    sC    sO     9    1.25520   1.255     3
C N C1 C 9 0.0 0.35267 1   sC    sN   sC1    sC     9    0.35267   0.353     1
C N C1 C 9 0.0 1.59541 2   sC    sN   sC1    sC     9    1.59541   1.595     2
C N C1 C 9 180.0 0.08381 3   sC    sN   sC1    sC     9    0.08381   0.084     3
C N C1 C 9 0.0 0.32396 4   sC    sN   sC1    sC     9    0.32396   0.324     4
C N C7 C 9 0.0 1.12968 2   sC    sN   sC7    sC     9    1.12968   1.130     2
C N C7 C 9 0.0 1.75728 3   sC    sN   sC7    sC     9    1.75728   1.757     3
C N CT C 9 180.0 0.14226 1   sC    sN   sCT    sC     9    0.14226   0.142     1
C N CT C 9 0.0 1.40164 2   sC    sN   sCT    sC     9    1.40164   1.402     2
C N CT C 9 0.0 2.27610 3   sC    sN   sCT    sC     9    2.27610   2.276     3
C N CT C 9 0.0 0.33472 4   sC    sN   sCT    sC     9    0.33472   0.335     4
CT C7 C N 9 0.0 0.83680 1  sCT   sC7    sC    sN     9    0.83680   0.837     1
CT C7 C N 9 0.0 0.83680 2  sCT   sC7    sC    sN     9    0.83680   0.837     2
CT C7 C N 9 0.0 1.67360 3  sCT   sC7    sC    sN     9    1.67360   1.674     3
CT C7 N C 9 0.0 8.36800 1  sCT   sC7    sN    sC     9    8.36800   8.368     1
CT C7 N C 9 0.0 8.36800 2  sCT   sC7    sN    sC     9    8.36800   8.368     2
CT C7 N C 9 0.0 1.67360 3  sCT   sC7    sN    sC     9    1.67360   1.674     3
CT C9 C O2 9 180.0 2.51040 2  sCT   sC9    sC   sO2     9    2.51040   2.510     2
CT C9 C O 9 180.0 2.51040 2  sCT   sC9    sC    sO     9    2.51040   2.510     2
CT C9 C OB 9 180.0 2.51040 2  sCT   sC9    sC   sOB     9    2.51040   2.510     2
CT CM CM CT 9 180.0 27.82360 2  sCT   sCM   sCM   sCT     9    27.82360  27.824    2
CT CM CM CT 9 180.0 7.94960 1  sCT   sCM   sCM   sCT     9    7.94960   7.950     1
CT CT C4 CT 9 0.0 0.62760 3  sCT   sCT   sC4   sCT     9    0.62760   0.628     3
CT CT C5 O 9 180.0 4.18400 1  sCT   sCT   sC5    sO     9    4.18400   4.184     1
CT CT C6 O2 9 180.0 0.77822 4  sCT   sCT   sC6   sO2     9    0.77822   0.778     4
CT CT C6 O2 9 180.0 1.48114 6  sCT   sCT   sC6   sO2     9    1.48114   1.481     6
CT CT C6 O2 9 180.0 3.65263 2  sCT   sCT   sC6   sO2     9    3.65263   3.653     2
CT CT C* CW 9 0.0 5.02080 1  sCT   sCT   sC*   sCW     9    5.02080   5.021     1
CT CT C N 9 0.0 0.83680 1  sCT   sCT    sC    sN     9    0.83680   0.837     1
CT CT C N 9 0.0 0.83680 2  sCT   sCT    sC    sN     9    0.83680   0.837     2
CT CT C N 9 0.0 1.67360 3  sCT   sCT    sC    sN     9    1.67360   1.674     3
CT CT CT C3 9 0.0 0.62760 3  sCT   sCT   sCT   sC3     9    0.62760   0.628     3
CT CT CT C7 9 0.0 0.75312 3  sCT   sCT   sCT   sC7     9    0.75312   0.753     3
CT CT CT C7 9 180.0 0.83680 1  sCT   sCT   sCT   sC7     9    0.83680   0.837     1
CT CT CT C7 9 180.0 1.04600 2  sCT   sCT   sCT   sC7     9    1.04600   1.046     2
CT CT CT CT 9 0.0 0.62760 3  sCT   sCT   sCT   sCT     9    0.62760   0.628     3
CT CT N C 9 0.0 1.67360 3  sCT   sCT    sN    sC     9    1.67360   1.674     3
CT CT N C 9 0.0 8.36800 1  sCT   sCT    sN    sC     9    8.36800   8.368     1
CT CT N C 9 0.0 8.36800 2  sCT   sCT    sN    sC     9    8.36800   8.368     2
CT CT OS C 9 0.0 1.60247 3  sCT   sCT   sOS    sC     9    1.60247   1.602     3
CT CT OS C 9 180.0 3.34720 1  sCT   sCT   sOS    sC     9    3.34720   3.347     1
CT CT OS CT 9 0.0 1.60247 3  sCT   sCT   sOS   sCT     9    1.60247   1.602     3
CT CT OS CT 9 180.0 0.41840 2  sCT   sCT   sOS   sCT     9    0.41840   0.418     2
CT CT SH HS 9 0.0 0.83680 3  sCT   sCT   sSH   sHS     9    0.83680   0.837     3
CT CT SH HS 9 0.0 2.09200 2  sCT   sCT   sSH   sHS     9    2.09200   2.092     2
CT OS CT N* 9 0.0 1.60247 3  sCT   sOS   sCT   sN*     9    1.60247   1.602     3
CT OS CT N* 9 0.0 2.71960 2  sCT   sOS   sCT   sN*     9    2.71960   2.720     2
CT OS CT OS 9 0.0 0.41840 3  sCT   sOS   sCT   sOS     9    0.41840   0.418     3
CT OS CT OS 9 180.0 3.55640 2  sCT   sOS   sCT   sOS     9    3.55640   3.556     2
CT OS CT OS 9 180.0 5.64840 1  sCT   sOS   sCT   sOS     9    5.64840   5.648     1
CT S S CT 9 0.0 14.64400 2  sCT    sS    sS   sCT     9    14.64400  14.644    2
CT S S CT 9 0.0 2.51040 3  sCT    sS    sS   sCT     9    2.51040   2.510     3
F CT CT F 9 180.0 5.02080 1   sF   sCT   sCT    sF     9    5.02080   5.021     1
H1 C1 C O 9 0.0 3.34720 1  sH1   sC1    sC    sO     9    3.34720   3.347     1
H1 C1 C O 9 180.0 0.33472 3  sH1   sC1    sC    sO     9    0.33472   0.335     3
H1 C7 C O 9 0.0 3.34720 1  sH1   sC7    sC    sO     9    3.34720   3.347     1
H1 C7 C O 9 180.0 0.33472 3  sH1   sC7    sC    sO     9    0.33472   0.335     3
H1 CT C O 9 0.0 3.34720 1  sH1   sCT    sC    sO     9    3.34720   3.347     1
H1 CT C O 9 180.0 0.33472 3  sH1   sCT    sC    sO     9    0.33472   0.335     3
H1 C1 C OB 9 0.0 3.34720 1  sH1   sC1    sC   sOB     9    3.34720   3.347     1
H1 C1 C OB 9 180.0 0.33472 3  sH1   sC1    sC   sOB     9    0.33472   0.335     3
H1 C7 C OB 9 0.0 3.34720 1  sH1   sC7    sC   sOB     9    3.34720   3.347     1
H1 C7 C OB 9 180.0 0.33472 3  sH1   sC7    sC   sOB     9    0.33472   0.335     3
H1 CT C OB 9 0.0 3.34720 1  sH1   sCT    sC   sOB     9    3.34720   3.347     1
H1 CT C OB 9 180.0 0.33472 3  sH1   sCT    sC   sOB     9    0.33472   0.335     3
H1 CT CT Br 9 0.0 2.30120 1  sH1   sCT   sCT   sBr     9    2.30120   2.301     1
H1 CT CT Cl 9 0.0 1.04600 1  sH1   sCT   sCT   sCl     9    1.04600   1.046     1
H1 CT CT F 9 0.0 0.79496 1  sH1   sCT   sCT    sF     9    0.79496   0.795     1
H1 CT CT OH 9 0.0 1.04600 1  sH1   sCT   sCT   sOH     9    1.04600   1.046     1
H1 CT CT OS 9 0.0 1.04600 1  sH1   sCT   sCT   sOS     9    1.04600   1.046     1
HC C3 CT CT 9 0.0 0.66944 3  sHC   sC3   sCT   sCT     9    0.66944   0.669     3
HC C4 CT CT 9 0.0 0.66944 3  sHC   sC4   sCT   sCT     9    0.66944   0.669     3
HC C4 CT HC 9 0.0 0.62760 3  sHC   sC4   sCT   sHC     9    0.62760   0.628     3
HC CT C3 HC 9 0.0 0.62760 3  sHC   sCT   sC3   sHC     9    0.62760   0.628     3
HC CT C4 CT 9 0.0 0.66944 3  sHC   sCT   sC4   sCT     9    0.66944   0.669     3
HC CT C5 O 9 0.0 3.34720 1  sHC   sCT   sC5    sO     9    3.34720   3.347     1
HC CT C5 O 9 180.0 0.33472 3  sHC   sCT   sC5    sO     9    0.33472   0.335     3
HC CT CM CM 9 0.0 4.81160 1  sHC   sCT   sCM   sCM     9    4.81160   4.812     1
HC CT CM CM 9 180.0 1.58992 3  sHC   sCT   sCM   sCM     9    1.58992   1.590     3
HC CT C O 9 0.0 3.34720 1  sHC   sCT    sC    sO     9    3.34720   3.347     1
HC CT C O 9 180.0 0.33472 3  sHC   sCT    sC    sO     9    0.33472   0.335     3
HC CT C OB 9 0.0 3.34720 1  sHC   sCT    sC   sOB     9    3.34720   3.347     1
HC CT C OB 9 180.0 0.33472 3  sHC   sCT    sC   sOB     9    0.33472   0.335     3
HC CT CT Br 9 0.0 2.30120 1  sHC   sCT   sCT   sBr     9    2.30120   2.301     1
HC CT CT C3 9 0.0 0.66944 3  sHC   sCT   sCT   sC3     9    0.66944   0.669     3
HC CT CT C4 9 0.0 0.66944 3  sHC   sCT   sCT   sC4     9    0.66944   0.669     3
HC CT CT C7 9 0.0 0.66944 3  sHC   sCT   sCT   sC7     9    0.66944   0.669     3
HC CT CT Cl 9 0.0 1.04600 1  sHC   sCT   sCT   sCl     9    1.04600   1.046     1
HC CT CT CT 9 0.0 0.66944 3  sHC   sCT   sCT   sCT     9    0.66944   0.669     3
HC CT CT F 9 0.0 0.79496 1  sHC   sCT   sCT    sF     9    0.79496   0.795     1
HC CT CT HC 9 0.0 0.62760 3  sHC   sCT   sCT   sHC     9    0.62760   0.628     3
HC CT CT OH 9 0.0 1.04600 1  sHC   sCT   sCT   sOH     9    1.04600   1.046     1
HC CT CT OS 9 0.0 1.04600 1  sHC   sCT   sCT   sOS     9    1.04600   1.046     1
H N C5 O 9 0.0 8.36800 1   sH    sN   sC5    sO     9    8.36800   8.368     1
H N C5 O 9 180.0 10.46000 2   sH    sN   sC5    sO     9    10.46000  10.460    2
H N C O 9 0.0 8.36800 1   sH    sN    sC    sO     9    8.36800   8.368     1
H N C O 9 180.0 10.46000 2   sH    sN    sC    sO     9    10.46000  10.460    2
HB N C OB 9 0.0 8.36800 1  sHB    sN    sC   sOB     9    8.36800   8.368     1
HB N C OB 9 180.0 10.46000 2  sHB    sN    sC   sOB     9    10.46000  10.460    2
HO O3 C8 CT 9 0.0 0.35982 1  sHO   sO3   sC8   sCT     9    0.35982   0.360     1
HO O3 C8 CT 9 0.0 0.41840 3  sHO   sO3   sC8   sCT     9    0.41840   0.418     3
HO O3 C8 CT 9 180.0 0.68199 2  sHO   sO3   sC8   sCT     9    0.68199   0.682     2
HO O3 C8 H1 9 0.0 0.41840 3  sHO   sO3   sC8   sH1     9    0.41840   0.418     3
HO OH C8 CT 9 0.0 0.25104 2  sHO   sOH   sC8   sCT     9    0.25104   0.251     2
HO OH C8 CT 9 0.0 0.83680 3  sHO   sOH   sC8   sCT     9    0.83680   0.837     3
HO OH C8 CT 9 0.0 3.13800 1  sHO   sOH   sC8   sCT     9    3.13800   3.138     1
HO OH C O 9 0.0 7.94960 1  sHO   sOH    sC    sO     9    7.94960   7.950     1
HO OH C O 9 180.0 9.62320 2  sHO   sOH    sC    sO     9    9.62320   9.623     2
HO OH CT CT 9 0.0 0.66944 3  sHO   sOH   sCT   sCT     9    0.66944   0.669     3
HO OH CT CT 9 0.0 1.04600 1  sHO   sOH   sCT   sCT     9    1.04600   1.046     1
N3 CT CT C3 9 0.0 0.81630 1  sN3   sCT   sCT   sC3     9    0.81630   0.816     1
N3 CT CT C3 9 180.0 3.53925 2  sN3   sCT   sCT   sC3     9    3.53925   3.539     2
N3 CT CT C6 9 180.0 11.02568 1  sN3   sCT   sCT   sC6     9    11.02568  11.026    1
N3 CT CT C6 9 180.0 4.98022 2  sN3   sCT   sCT   sC6     9    4.98022   4.980     2
N3 CT CT C6 9 180.0 0.02845 3  sN3   sCT   sCT   sC6     9    0.02845   0.028     3
N3 CT CT C6 9 0.0 1.76858 4  sN3   sCT   sCT   sC6     9    1.76858   1.769     4
N3 CT CT C6 9 0.0 0.96943 5  sN3   sCT   sCT   sC6     9    0.96943   0.969     5
N3 CT CT C6 9 180.0 0.89009 6  sN3   sCT   sCT   sC6     9    0.89009   0.890     6
N C1 C N 9 180.0 2.69445 1   sN   sC1    sC    sN     9    2.69445   2.694     1
N C1 C N 9 180.0 6.68666 2   sN   sC1    sC    sN     9    6.68666   6.687     2
N C1 C N 9 180.0 1.67111 3   sN   sC1    sC    sN     9    1.67111   1.671     3
N C1 C N 9 0.0 0.31419 4   sN   sC1    sC    sN     9    0.31419   0.314     4
N C5 CT CT 9 180.0 4.37772 1   sN   sC5   sCT   sCT     9    4.37772   4.378     1
N C5 CT CT 9 180.0 0.75730 2   sN   sC5   sCT   sCT     9    0.75730   0.757     2
N C5 CT CT 9 180.0 0.14811 3   sN   sC5   sCT   sCT     9    0.14811   0.148     3
N C5 CT CT 9 0.0 0.41966 4   sN   sC5   sCT   sCT     9    0.41966   0.420     4
N C5 CT CT 9 0.0 0.54308 5   sN   sC5   sCT   sCT     9    0.54308   0.543     5
N C5 CT CT 9 180.0 0.44373 6   sN   sC5   sCT   sCT     9    0.44373   0.444     6
N C7 C N 9 180.0 1.88280 1   sN   sC7    sC    sN     9    1.88280   1.883     1
N C7 C N 9 180.0 6.61072 2   sN   sC7    sC    sN     9    6.61072   6.611     2
N C7 C N 9 180.0 2.30120 3   sN   sC7    sC    sN     9    2.30120   2.301     3
N CT C8 CT 9 0.0 0.25104 1   sN   sCT   sC8   sCT     9    0.25104   0.251     1
N CT C8 CT 9 180.0 2.09200 2   sN   sCT   sC8   sCT     9    2.09200   2.092     2
N CT C8 CT 9 0.0 0.62760 3   sN   sCT   sC8   sCT     9    0.62760   0.628     3
N CT C8 CT 9 180.0 0.27196 4   sN   sCT   sC8   sCT     9    0.27196   0.272     4
N CT C8 O3 9 180.0 0.33472 1   sN   sCT   sC8   sO3     9    0.33472   0.335     1
N CT C8 OH 9 180.0 1.04600 1   sN   sCT   sC8   sOH     9    1.04600   1.046     1
N CT C N 9 360.0 0.82425 1   sN   sCT    sC    sN     9    0.82425   0.824     1
N CT C N 9 180.0 6.04588 2   sN   sCT    sC    sN     9    6.04588   6.046     2
N CT C N 9 180.0 2.00414 3   sN   sCT    sC    sN     9    2.00414   2.004     3
N CT C N 9 360.0 0.07991 4   sN   sCT    sC    sN     9    0.07991   0.080     4
N CT C N 9 360.0 0.01674 5   sN   sCT    sC    sN     9    0.01674   0.017     5
N CT CT C3 9 0.0 0.81630 1   sN   sCT   sCT   sC3     9    0.81630   0.816     1
N CT CT C3 9 180.0 3.53925 2   sN   sCT   sCT   sC3     9    3.53925   3.539     2
N CT CT C5 9 180.0 2.63592 1   sN   sCT   sCT   sC5     9    2.63592   2.636     1
N CT CT C6 9 180.0 12.05410 1   sN   sCT   sCT   sC6     9    12.05410  12.054    1
N CT CT C6 9 180.0 5.06682 2   sN   sCT   sCT   sC6     9    5.06682   5.067     2
N CT CT C6 9 0.0 0.25941 3   sN   sCT   sCT   sC6     9    0.25941   0.259     3
N CT CT C6 9 0.0 1.02508 4   sN   sCT   sCT   sC6     9    1.02508   1.025     4
N CT CT C6 9 0.0 0.54810 5   sN   sCT   sCT   sC6     9    0.54810   0.548     5
N CT CT C6 9 180.0 0.59413 6   sN   sCT   sCT   sC6     9    0.59413   0.594     6
N CT CT C9 9 0.0 0.41840 1   sN   sCT   sCT   sC9     9    0.41840   0.418     1
N CT CT CC 9 180.0 1.67360 1   sN   sCT   sCT   sCC     9    1.67360   1.674     1
N CT CT SH 9 180.0 2.30120 1   sN   sCT   sCT   sSH     9    2.30120   2.301     1
N CT CT SH 9 180.0 2.63592 2   sN   sCT   sCT   sSH     9    2.63592   2.636     2
N CT CT SH 9 180.0 0.25104 3   sN   sCT   sCT   sSH     9    0.25104   0.251     3
N CT CT SH 9 180.0 0.12552 4   sN   sCT   sCT   sSH     9    0.12552   0.126     4
O C OS CT 9 180.0 5.85760 1   sO    sC   sOS   sCT     9    5.85760   5.858     1
O C OS CT 9 180.0 11.29680 2   sO    sC   sOS   sCT     9    11.29680  11.297    2
OH CT CT OH 9 0.0 0.60250 3  sOH   sCT   sCT   sOH     9    0.60250   0.603     3
OH CT CT OH 9 0.0 4.91620 2  sOH   sCT   sCT   sOH     9    4.91620   4.916     2
OH P OS CT 9 0.0 1.04600 3  sOH    sP   sOS   sCT     9    1.04600   1.046     3
OH P OS CT 9 0.0 5.02080 2  sOH    sP   sOS   sCT     9    5.02080   5.021     2
OS CT CT OH 9 0.0 0.60250 3  sOS   sCT   sCT   sOH     9    0.60250   0.603     3
OS CT CT OH 9 0.0 4.91620 2  sOS   sCT   sCT   sOH     9    4.91620   4.916     2
OS CT CT OS 9 0.0 4.91620 2  sOS   sCT   sCT   sOS     9    4.91620   4.916     2
OS CT CT OS 9 0.0 0.60250 3  sOS   sCT   sCT   sOS     9    0.60250   0.603     3
OS CT N* CK 9 0.0 10.46000 1  sOS   sCT   sN*   sCK     9    10.46000  10.460    1
OS CT N* CM 9 0.0 10.46000 1  sOS   sCT   sN*   sCM     9    10.46000  10.460    1
OS P OS CT 9 0.0 5.02080 2  sOS    sP   sOS   sCT     9    5.02080   5.021     2
OS P OS CT 9 0.0 1.04600 3  sOS    sP   sOS   sCT     9    1.04600   1.046     3
N CT CT CA 9 0.0 0.00000 0   sN   sCT   sCT   sCA     9    0.00000   0.000     0
N CT CT C* 9 0.0 0.00000 0   sN   sCT   sCT   sC*     9    0.00000   0.000     0
CT CT C9 S 9 0.0 0.00000 0  sCT   sCT   sC9    sS     9    0.00000   0.000     0
CT CT C9 CT 9 0.0 0.00000 0  sCT   sCT   sC9   sCT     9    0.00000   0.000     0
X C1 N3 X 9 0.0 0.65084 3    X   sC1   sN3     X     9    0.65084   0.651     3
X C5 N X 9 180.0 10.46000 2    X   sC5    sN     X     9    10.46000  10.460    2
X C7 CT X 9 0.0 0.65084 3    X   sC7   sCT     X     9    0.65084   0.651     3
X C7 N3 X 9 0.0 0.65084 3    X   sC7   sN3     X     9    0.65084   0.651     3
X C8 O3 X 9 0.0 0.69873 3    X   sC8   sO3     X     9    0.69873   0.699     3
X C8 OH X 9 0.0 0.69873 3    X   sC8   sOH     X     9    0.69873   0.699     3
X C9 S X 9 0.0 1.39327 3    X   sC9    sS     X     9    1.39327   1.393     3
X CA CA X 9 180.0 15.16700 2    X   sCA   sCA     X     9    15.16700  15.167    2
X CA CB X 9 180.0 14.64400 2    X   sCA   sCB     X     9    14.64400  14.644    2
X CA CM X 9 180.0 10.66920 2    X   sCA   sCM     X     9    10.66920  10.669    2
X CA CN X 9 180.0 15.16700 2    X   sCA   sCN     X     9    15.16700  15.167    2
X CA N2 X 9 180.0 10.04160 2    X   sCA   sN2     X     9    10.04160  10.042    2
X CA NA X 9 180.0 6.27600 2    X   sCA   sNA     X     9    6.27600   6.276     2
X CA NC X 9 180.0 20.08320 2    X   sCA   sNC     X     9    20.08320  20.083    2
X CA OH X 9 180.0 3.76560 2    X   sCA   sOH     X     9    3.76560   3.766     2
X CB CB X 9 180.0 22.80280 2    X   sCB   sCB     X     9    22.80280  22.803    2
X CB CN X 9 180.0 12.55200 2    X   sCB   sCN     X     9    12.55200  12.552    2
X CB NB X 9 180.0 10.66920 2    X   sCB   sNB     X     9    10.66920  10.669    2
X CB NC X 9 180.0 17.36360 2    X   sCB   sNC     X     9    17.36360  17.364    2
X CB N* X 9 180.0 6.90360 2    X   sCB   sN*     X     9    6.90360   6.904     2
X C CA X 9 180.0 15.16700 2    X    sC   sCA     X     9    15.16700  15.167    2
X C CB X 9 180.0 12.55200 2    X    sC   sCB     X     9    12.55200  12.552    2
X C* CB X 9 180.0 7.00820 2    X   sC*   sCB     X     9    7.00820   7.008     2
X CC CV X 9 180.0 21.54760 2    X   sCC   sCV     X     9    21.54760  21.548    2
X CC CW X 9 180.0 22.48900 2    X   sCC   sCW     X     9    22.48900  22.489    2
X C CM X 9 180.0 9.10020 2    X    sC   sCM     X     9    9.10020   9.100     2
X CC NA X 9 180.0 5.85760 2    X   sCC   sNA     X     9    5.85760   5.858     2
X CC NB X 9 180.0 10.04160 2    X   sCC   sNB     X     9    10.04160  10.042    2
X C* CW X 9 180.0 27.30060 2    X   sC*   sCW     X     9    27.30060  27.301    2
X C C X 9 180.0 15.16700 2    X    sC    sC     X     9    15.16700  15.167    2
X CK NB X 9 180.0 41.84000 2    X   sCK   sNB     X     9    41.84000  41.840    2
X CK N* X 9 180.0 7.11280 2    X   sCK   sN*     X     9    7.11280   7.113     2
X CM CM X 9 180.0 27.82360 2    X   sCM   sCM     X     9    27.82360  27.824    2
X CM N* X 9 180.0 7.74040 2    X   sCM   sN*     X     9    7.74040   7.740     2
X CM OS X 9 180.0 4.39320 2    X   sCM   sOS     X     9    4.39320   4.393     2
X C NA X 9 180.0 5.64840 2    X    sC   sNA     X     9    5.64840   5.648     2
X C NC X 9 180.0 16.73600 2    X    sC   sNC     X     9    16.73600  16.736    2
X CN NA X 9 180.0 6.38060 2    X   sCN   sNA     X     9    6.38060   6.381     2
X C N X 9 180.0 10.46000 2    X    sC    sN     X     9    10.46000  10.460    2
X C N* X 9 180.0 6.06680 2    X    sC   sN*     X     9    6.06680   6.067     2
X C OH X 9 180.0 9.62320 2    X    sC   sOH     X     9    9.62320   9.623     2
X C OS X 9 180.0 11.29680 2    X    sC   sOS     X     9    11.29680  11.297    2
X C O X 9 180.0 11.71520 2    X    sC    sO     X     9    11.71520  11.715    2
X C OB X 9 180.0 11.71520 2    X    sC   sOB     X     9    11.71520  11.715    2
X CQ NC X 9 180.0 28.45120 2    X   sCQ   sNC     X     9    28.45120  28.451    2
X CR NA X 9 180.0 9.72780 2    X   sCR   sNA     X     9    9.72780   9.728     2
X CR NB X 9 180.0 20.92000 2    X   sCR   sNB     X     9    20.92000  20.920    2
X CT C8 X 9 0.0 0.64852 3    X   sCT   sC8     X     9    0.64852   0.649     3
X CT C9 X 9 0.0 0.64852 3    X   sCT   sC9     X     9    0.64852   0.649     3
X CT CT X 9 0.0 0.65084 3    X   sCT   sCT     X     9    0.65084   0.651     3
X CT N3 X 9 0.0 0.65084 3    X   sCT   sN3     X     9    0.65084   0.651     3
X CT OH X 9 0.0 0.69733 3    X   sCT   sOH     X     9    0.69733   0.697     3
X CT OS X 9 0.0 1.60387 3    X   sCT   sOS     X     9    1.60387   1.604     3
X CT SH X 9 0.0 1.04600 3    X   sCT   sSH     X     9    1.04600   1.046     3
X CT S X 9 0.0 1.39467 3    X   sCT    sS     X     9    1.39467   1.395     3
X CV NB X 9 180.0 10.04160 2    X   sCV   sNB     X     9    10.04160  10.042    2
X CW NA X 9 180.0 6.27600 2    X   sCW   sNA     X     9    6.27600   6.276     2
X OH P X 9 0.0 1.04600 3    X   sOH    sP     X     9    1.04600   1.046     3
X OS P X 9 0.0 1.04600 3    X   sOS    sP     X     9    1.04600   1.046     3
X C1 N X 9 0.0 0.00000 0    X   sC1    sN     X     9    0.00000   0.000     0
X C C1 X 9 0.0 0.00000 0    X    sC   sC1     X     9    0.00000   0.000     0
X C C9 X 9 0.0 0.00000 0    X    sC   sC9     X     9    0.00000   0.000     0
X C CT X 9 0.0 0.00000 0    X    sC   sCT     X     9    0.00000   0.000     0
X CA CT X 9 0.0 0.00000 0    X   sCA   sCT     X     9    0.00000   0.000     0
X CC CT X 9 0.0 0.00000 0    X   sCC   sCT     X     9    0.00000   0.000     0
X CM CT X 9 0.0 0.00000 0    X   sCM   sCT     X     9    0.00000   0.000     0
X CT N X 9 0.0 0.00000 0    X   sCT    sN     X     9    0.00000   0.000     0
X CT N* X 9 0.0 0.00000 0    X   sCT   sN*     X     9    0.00000   0.000     0
X CT N2 X 9 0.0 0.00000 0    X   sCT   sN2     X     9    0.00000   0.000     0
X C* CT X 9 0.0 0.00000 0    X   sC*   sCT     X     9    0.00000   0.000     0
X C7 N X 9 0.0 0.00000 0    X   sC7    sN     X     9    0.00000   0.000     0
X C C7 X 9 0.0 0.00000 0    X    sC   sC7     X     9    0.00000   0.000     0
X C5 CT X 9 0.0 0.00000 0    X   sC5   sCT     X     9    0.00000   0.000     0
X C6 CT X 9 0.0 0.00000 0    X   sC6   sCT     X     9    0.00000   0.000     0
C C1 N O 4 180.0 4.60240 2   sC   sC1    sN    sO     4    4.60240   4.279     2
C C1 N OB 4 180.0 4.60240 2   sC   sC1    sN   sOB     4    4.60240   4.279     2
C C1 N H 4 180.0 4.60240 2   sC   sC1    sN    sH     4    4.60240   4.279     2
C C1 N HB 4 180.0 4.60240 2   sC   sC1    sN   sHB     4    4.60240   4.279     2
C9 O C OH 4 180.0 43.93200 2  sC9    sO    sC   sOH     4    43.93200  40.840    2
CB CK N* CT 4 180.0 4.18400 2  sCB   sCK   sN*   sCT     4    4.18400   3.890     2
C CM N* CT 4 180.0 4.18400 2   sC   sCM   sN*   sCT     4    4.18400   3.890     2
CT O C OH 4 180.0 43.93200 2  sCT    sO    sC   sOH     4    43.93200  40.840    2
CT CV CC NA 4 180.0 4.60240 2  sCT   sCV   sCC   sNA     4    4.60240   4.279     2
CT CW CC NB 4 180.0 4.60240 2  sCT   sCW   sCC   sNB     4    4.60240   4.279     2
CT CC CW NB 4 180.0 4.60240 2  sCT   sCC   sCW   sNB     4    4.60240   4.279     2
CT CW CC NA 4 180.0 4.60240 2  sCT   sCW   sCC   sNA     4    4.60240   4.279     2
CB CT C* CW 4 180.0 4.60240 2  sCB   sCT   sC*   sCW     4    4.60240   4.279     2
CA CA CA CT 4 180.0 4.60240 2  sCA   sCA   sCA   sCT     4    4.60240   4.279     2
C CM CM CT 4 180.0 4.60240 2   sC   sCM   sCM   sCT     4    4.60240   4.279     2
CM N2 CA NC 4 180.0 4.60240 2  sCM   sN2   sCA   sNC     4    4.60240   4.279     2
CB N2 CA NC 4 180.0 4.60240 2  sCB   sN2   sCA   sNC     4    4.60240   4.279     2
N2 NA CA NC 4 180.0 4.60240 2  sN2   sNA   sCA   sNC     4    4.60240   4.279     2
CA CA C OH 4 180.0 4.60240 2  sCA   sCA    sC   sOH     4    4.60240   4.279     2
CA CA CA OH 4 180.0 4.60240 2  sCA   sCA   sCA   sOH     4    4.60240   4.279     2
H5 O C OH 4 180.0 4.60240 2  sH5    sO    sC   sOH     4    4.60240   4.279     2
H5 O C OS 4 180.0 4.60240 2  sH5    sO    sC   sOS     4    4.60240   4.279     2
CM CT CM HA 4 180.0 4.60240 2  sCM   sCT   sCM   sHA     4    4.60240   4.279     2
Br CA CA CA 4 180.0 4.60240 2  sBr   sCA   sCA   sCA     4    4.60240   4.279     2
CM H4 C O 4 180.0 4.60240 2  sCM   sH4    sC    sO     4    4.60240   4.279     2
C CT N H 4 180.0 4.60240 2   sC   sCT    sN    sH     4    4.60240   4.279     2
C CT N HB 4 180.0 4.60240 2   sC   sCT    sN   sHB     4    4.60240   4.279     2
C CT N O 4 180.0 4.60240 2   sC   sCT    sN    sO     4    4.60240   4.279     2
C C7 N O 4 180.0 4.60240 2   sC   sC7    sN    sO     4    4.60240   4.279     2
C CT N OB 4 180.0 4.60240 2   sC   sCT    sN   sOB     4    4.60240   4.279     2
C C7 N OB 4 180.0 4.60240 2   sC   sC7    sN   sOB     4    4.60240   4.279     2
C C7 N H 4 180.0 4.60240 2   sC   sC7    sN    sH     4    4.60240   4.279     2
C C7 N HB 4 180.0 4.60240 2   sC   sC7    sN   sHB     4    4.60240   4.279     2
C5 CT N O 4 180.0 4.60240 2  sC5   sCT    sN    sO     4    4.60240   4.279     2
C5 CT N OB 4 180.0 4.60240 2  sC5   sCT    sN   sOB     4    4.60240   4.279     2
C5 CT N H 4 180.0 4.60240 2  sC5   sCT    sN    sH     4    4.60240   4.279     2
C5 CT N HB 4 180.0 4.60240 2  sC5   sCT    sN   sHB     4    4.60240   4.279     2
X CT N C1 4 180.0 4.18400 2    X   sCT    sN   sC1     4    4.18400   3.890     2
X CT N C7 4 180.0 4.18400 2    X   sCT    sN   sC7     4    4.18400   3.890     2
X O2 C6 O2 4 180.0 43.93200 2    X   sO2   sC6   sO2     4    43.93200  40.840    2
X O2 C O2 4 180.0 43.93200 2    X   sO2    sC   sO2     4    43.93200  40.840    2
X N2 CA N2 4 180.0 43.93200 2    X   sN2   sCA   sN2     4    43.93200  40.840    2
X CT N CT 4 180.0 4.18400 2    X   sCT    sN   sCT     4    4.18400   3.890     2
X X C O 4 180.0 43.93200 2    X     X    sC    sO     4    43.93200  40.840    2
X X C OB 4 180.0 43.93200 2    X     X    sC   sOB     4    43.93200  40.840    2
X X N H 4 180.0 4.18400 2    X     X    sN    sH     4    4.18400   3.890     2
X X N2 H 4 180.0 4.18400 2    X     X   sN2    sH     4    4.18400   3.890     2
X X NA H 4 180.0 4.18400 2    X     X   sNA    sH     4    4.18400   3.890     2
X X CA HA 4 180.0 4.60240 2    X     X   sCA   sHA     4    4.60240   4.279     2
X X CW H4 4 180.0 4.60240 2    X     X   sCW   sH4     4    4.60240   4.279     2
X X CR H5 4 180.0 4.60240 2    X     X   sCR   sH5     4    4.60240   4.279     2
X X CV H4 4 180.0 4.60240 2    X     X   sCV   sH4     4    4.60240   4.279     2
X X CQ H5 4 180.0 4.60240 2    X     X   sCQ   sH5     4    4.60240   4.279     2
X X CK H5 4 180.0 4.60240 2    X     X   sCK   sH5     4    4.60240   4.279     2
X X CM H4 4 180.0 4.60240 2    X     X   sCM   sH4     4    4.60240   4.279     2
X X CM HA 4 180.0 4.60240 2    X     X   sCM   sHA     4    4.60240   4.279     2
X X CA H4 4 180.0 4.60240 2    X     X   sCA   sH4     4    4.60240   4.279     2
X X CA H5 4 180.0 4.60240 2    X     X   sCA   sH5     4    4.60240   4.279     2
X X C5 O 4 180.0 43.93200 2    X     X   sC5    sO     4    43.93200  40.840    2
C8 CT C N 9 0.0 0.83680 1  sC8   sCT    sC    sN     9    0.83680   0.778     1
C8 CT C N 9 0.0 0.83680 2  sC8   sCT    sC    sN     9    0.83680   0.778     2
C8 CT C N 9 0.0 1.67360 3  sC8   sCT    sC    sN     9    1.67360   1.556     3
C8 CT N C 9 0.0 8.36800 1  sC8   sCT    sN    sC     9    8.36800   7.779     1
C8 CT N C 9 0.0 8.36800 2  sC8   sCT    sN    sC     9    8.36800   7.779     2
C8 CT N C 9 0.0 1.67360 3  sC8   sCT    sN    sC     9    1.67360   1.556     3
C CT C8 O3 9 180.0 4.18400 1   sC   sCT   sC8   sO3     9    4.18400   3.890     1
C CT C8 OH 9 180.0 3.76560 1   sC   sCT   sC8   sOH     9    3.76560   3.501     1
C CT CT C4 9 0.0 2.39074 1   sC   sCT   sCT   sC4     9    2.39074   2.222     1
C CT CT C4 9 180.0 1.49913 2   sC   sCT   sCT   sC4     9    1.49913   1.394     2
C CT CT C4 9 0.0 0.56400 3   sC   sCT   sCT   sC4     9    0.56400   0.524     3
C CT CT C5 9 0.0 0.71421 1   sC   sCT   sCT   sC5     9    0.71421   0.664     1
C CT CT C5 9 180.0 2.49241 2   sC   sCT   sCT   sC5     9    2.49241   2.317     2
C CT CT C5 9 0.0 0.49580 3   sC   sCT   sCT   sC5     9    0.49580   0.461     3
C CT CT C5 9 180.0 1.74556 4   sC   sCT   sCT   sC5     9    1.74556   1.623     4
C CT CT C5 9 0.0 0.43597 5   sC   sCT   sCT   sC5     9    0.43597   0.405     5
C CT CT C5 9 180.0 0.42142 6   sC   sCT   sCT   sC5     9    0.42142   0.392     6
C CT CT C* 9 0.0 1.21336 1   sC   sCT   sCT   sC*     9    1.21336   1.128     1
C CT CT C9 9 0.0 1.25520 1   sC   sCT   sCT   sC9     9    1.25520   1.167     1
C CT CT CA 9 0.0 2.17568 1   sC   sCT   sCT   sCA     9    2.17568   2.023     1
C CT CT CC 9 0.0 2.92880 1   sC   sCT   sCT   sCC     9    2.92880   2.723     1
C CT CT SH 9 180.0 0.66944 1   sC   sCT   sCT   sSH     9    0.66944   0.622     1
Cl CT CT Cl 9 180.0 1.88280 1  sCl   sCT   sCT   sCl     9    1.88280   1.750     1
CM CM C O 9 180.0 9.10020 2  sCM   sCM    sC    sO     9    9.10020   8.460     2
CM CM C O 9 0.0 1.25520 3  sCM   sCM    sC    sO     9    1.25520   1.167     3
C N C1 C 9 0.0 0.35267 1   sC    sN   sC1    sC     9    0.35267   0.328     1
C N C1 C 9 0.0 1.59541 2   sC    sN   sC1    sC     9    1.59541   1.483     2
C N C1 C 9 180.0 0.08381 3   sC    sN   sC1    sC     9    0.08381   0.078     3
C N C1 C 9 0.0 0.32396 4   sC    sN   sC1    sC     9    0.32396   0.301     4
C N C7 C 9 0.0 1.12968 2   sC    sN   sC7    sC     9    1.12968   1.050     2
C N C7 C 9 0.0 1.75728 3   sC    sN   sC7    sC     9    1.75728   1.634     3
C N CT C 9 180.0 0.14226 1   sC    sN   sCT    sC     9    0.14226   0.132     1
C N CT C 9 0.0 1.40164 2   sC    sN   sCT    sC     9    1.40164   1.303     2
C N CT C 9 0.0 2.27610 3   sC    sN   sCT    sC     9    2.27610   2.116     3
C N CT C 9 0.0 0.33472 4   sC    sN   sCT    sC     9    0.33472   0.311     4
CT C7 C N 9 0.0 0.83680 1  sCT   sC7    sC    sN     9    0.83680   0.778     1
CT C7 C N 9 0.0 0.83680 2  sCT   sC7    sC    sN     9    0.83680   0.778     2
CT C7 C N 9 0.0 1.67360 3  sCT   sC7    sC    sN     9    1.67360   1.556     3
CT C7 N C 9 0.0 8.36800 1  sCT   sC7    sN    sC     9    8.36800   7.779     1
CT C7 N C 9 0.0 8.36800 2  sCT   sC7    sN    sC     9    8.36800   7.779     2
CT C7 N C 9 0.0 1.67360 3  sCT   sC7    sN    sC     9    1.67360   1.556     3
CT C9 C O2 9 180.0 2.51040 2  sCT   sC9    sC   sO2     9    2.51040   2.334     2
CT C9 C O 9 180.0 2.51040 2  sCT   sC9    sC    sO     9    2.51040   2.334     2
CT C9 C OB 9 180.0 2.51040 2  sCT   sC9    sC   sOB     9    2.51040   2.334     2
CT CM CM CT 9 180.0 27.82360 2  sCT   sCM   sCM   sCT     9    27.82360  25.865    2
CT CM CM CT 9 180.0 7.94960 1  sCT   sCM   sCM   sCT     9    7.94960   7.390     1
CT CT C4 CT 9 0.0 0.62760 3  sCT   sCT   sC4   sCT     9    0.62760   0.583     3
CT CT C5 O 9 180.0 4.18400 1  sCT   sCT   sC5    sO     9    4.18400   3.890     1
CT CT C6 O2 9 180.0 0.77822 4  sCT   sCT   sC6   sO2     9    0.77822   0.723     4
CT CT C6 O2 9 180.0 1.48114 6  sCT   sCT   sC6   sO2     9    1.48114   1.377     6
CT CT C6 O2 9 180.0 3.65263 2  sCT   sCT   sC6   sO2     9    3.65263   3.396     2
CT CT C* CW 9 0.0 5.02080 1  sCT   sCT   sC*   sCW     9    5.02080   4.667     1
CT CT C N 9 0.0 0.83680 1  sCT   sCT    sC    sN     9    0.83680   0.778     1
CT CT C N 9 0.0 0.83680 2  sCT   sCT    sC    sN     9    0.83680   0.778     2
CT CT C N 9 0.0 1.67360 3  sCT   sCT    sC    sN     9    1.67360   1.556     3
CT CT CT C3 9 0.0 0.62760 3  sCT   sCT   sCT   sC3     9    0.62760   0.583     3
CT CT CT C7 9 0.0 0.75312 3  sCT   sCT   sCT   sC7     9    0.75312   0.700     3
CT CT CT C7 9 180.0 0.83680 1  sCT   sCT   sCT   sC7     9    0.83680   0.778     1
CT CT CT C7 9 180.0 1.04600 2  sCT   sCT   sCT   sC7     9    1.04600   0.972     2
CT CT CT CT 9 0.0 0.62760 3  sCT   sCT   sCT   sCT     9    0.62760   0.583     3
CT CT N C 9 0.0 1.67360 3  sCT   sCT    sN    sC     9    1.67360   1.556     3
CT CT N C 9 0.0 8.36800 1  sCT   sCT    sN    sC     9    8.36800   7.779     1
CT CT N C 9 0.0 8.36800 2  sCT   sCT    sN    sC     9    8.36800   7.779     2
CT CT OS C 9 0.0 1.60247 3  sCT   sCT   sOS    sC     9    1.60247   1.490     3
CT CT OS C 9 180.0 3.34720 1  sCT   sCT   sOS    sC     9    3.34720   3.112     1
CT CT OS CT 9 0.0 1.60247 3  sCT   sCT   sOS   sCT     9    1.60247   1.490     3
CT CT OS CT 9 180.0 0.41840 2  sCT   sCT   sOS   sCT     9    0.41840   0.389     2
CT CT SH HS 9 0.0 0.83680 3  sCT   sCT   sSH   sHS     9    0.83680   0.778     3
CT CT SH HS 9 0.0 2.09200 2  sCT   sCT   sSH   sHS     9    2.09200   1.945     2
CT OS CT N* 9 0.0 1.60247 3  sCT   sOS   sCT   sN*     9    1.60247   1.490     3
CT OS CT N* 9 0.0 2.71960 2  sCT   sOS   sCT   sN*     9    2.71960   2.528     2
CT OS CT OS 9 0.0 0.41840 3  sCT   sOS   sCT   sOS     9    0.41840   0.389     3
CT OS CT OS 9 180.0 3.55640 2  sCT   sOS   sCT   sOS     9    3.55640   3.306     2
CT OS CT OS 9 180.0 5.64840 1  sCT   sOS   sCT   sOS     9    5.64840   5.251     1
CT S S CT 9 0.0 14.64400 2  sCT    sS    sS   sCT     9    14.64400  13.613    2
CT S S CT 9 0.0 2.51040 3  sCT    sS    sS   sCT     9    2.51040   2.334     3
F CT CT F 9 180.0 5.02080 1   sF   sCT   sCT    sF     9    5.02080   4.667     1
H1 C1 C O 9 0.0 3.34720 1  sH1   sC1    sC    sO     9    3.34720   3.112     1
H1 C1 C O 9 180.0 0.33472 3  sH1   sC1    sC    sO     9    0.33472   0.311     3
H1 C7 C O 9 0.0 3.34720 1  sH1   sC7    sC    sO     9    3.34720   3.112     1
H1 C7 C O 9 180.0 0.33472 3  sH1   sC7    sC    sO     9    0.33472   0.311     3
H1 CT C O 9 0.0 3.34720 1  sH1   sCT    sC    sO     9    3.34720   3.112     1
H1 CT C O 9 180.0 0.33472 3  sH1   sCT    sC    sO     9    0.33472   0.311     3
H1 C1 C OB 9 0.0 3.34720 1  sH1   sC1    sC   sOB     9    3.34720   3.112     1
H1 C1 C OB 9 180.0 0.33472 3  sH1   sC1    sC   sOB     9    0.33472   0.311     3
H1 C7 C OB 9 0.0 3.34720 1  sH1   sC7    sC   sOB     9    3.34720   3.112     1
H1 C7 C OB 9 180.0 0.33472 3  sH1   sC7    sC   sOB     9    0.33472   0.311     3
H1 CT C OB 9 0.0 3.34720 1  sH1   sCT    sC   sOB     9    3.34720   3.112     1
H1 CT C OB 9 180.0 0.33472 3  sH1   sCT    sC   sOB     9    0.33472   0.311     3
H1 CT CT Br 9 0.0 2.30120 1  sH1   sCT   sCT   sBr     9    2.30120   2.139     1
H1 CT CT Cl 9 0.0 1.04600 1  sH1   sCT   sCT   sCl     9    1.04600   0.972     1
H1 CT CT F 9 0.0 0.79496 1  sH1   sCT   sCT    sF     9    0.79496   0.739     1
H1 CT CT OH 9 0.0 1.04600 1  sH1   sCT   sCT   sOH     9    1.04600   0.972     1
H1 CT CT OS 9 0.0 1.04600 1  sH1   sCT   sCT   sOS     9    1.04600   0.972     1
HC C3 CT CT 9 0.0 0.66944 3  sHC   sC3   sCT   sCT     9    0.66944   0.622     3
HC C4 CT CT 9 0.0 0.66944 3  sHC   sC4   sCT   sCT     9    0.66944   0.622     3
HC C4 CT HC 9 0.0 0.62760 3  sHC   sC4   sCT   sHC     9    0.62760   0.583     3
HC CT C3 HC 9 0.0 0.62760 3  sHC   sCT   sC3   sHC     9    0.62760   0.583     3
HC CT C4 CT 9 0.0 0.66944 3  sHC   sCT   sC4   sCT     9    0.66944   0.622     3
HC CT C5 O 9 0.0 3.34720 1  sHC   sCT   sC5    sO     9    3.34720   3.112     1
HC CT C5 O 9 180.0 0.33472 3  sHC   sCT   sC5    sO     9    0.33472   0.311     3
HC CT CM CM 9 0.0 4.81160 1  sHC   sCT   sCM   sCM     9    4.81160   4.473     1
HC CT CM CM 9 180.0 1.58992 3  sHC   sCT   sCM   sCM     9    1.58992   1.478     3
HC CT C O 9 0.0 3.34720 1  sHC   sCT    sC    sO     9    3.34720   3.112     1
HC CT C O 9 180.0 0.33472 3  sHC   sCT    sC    sO     9    0.33472   0.311     3
HC CT C OB 9 0.0 3.34720 1  sHC   sCT    sC   sOB     9    3.34720   3.112     1
HC CT C OB 9 180.0 0.33472 3  sHC   sCT    sC   sOB     9    0.33472   0.311     3
HC CT CT Br 9 0.0 2.30120 1  sHC   sCT   sCT   sBr     9    2.30120   2.139     1
HC CT CT C3 9 0.0 0.66944 3  sHC   sCT   sCT   sC3     9    0.66944   0.622     3
HC CT CT C4 9 0.0 0.66944 3  sHC   sCT   sCT   sC4     9    0.66944   0.622     3
HC CT CT C7 9 0.0 0.66944 3  sHC   sCT   sCT   sC7     9    0.66944   0.622     3
HC CT CT Cl 9 0.0 1.04600 1  sHC   sCT   sCT   sCl     9    1.04600   0.972     1
HC CT CT CT 9 0.0 0.66944 3  sHC   sCT   sCT   sCT     9    0.66944   0.622     3
HC CT CT F 9 0.0 0.79496 1  sHC   sCT   sCT    sF     9    0.79496   0.739     1
HC CT CT HC 9 0.0 0.62760 3  sHC   sCT   sCT   sHC     9    0.62760   0.583     3
HC CT CT OH 9 0.0 1.04600 1  sHC   sCT   sCT   sOH     9    1.04600   0.972     1
HC CT CT OS 9 0.0 1.04600 1  sHC   sCT   sCT   sOS     9    1.04600   0.972     1
H N C5 O 9 0.0 8.36800 1   sH    sN   sC5    sO     9    8.36800   7.779     1
H N C5 O 9 180.0 10.46000 2   sH    sN   sC5    sO     9    10.46000  9.724     2
H N C O 9 0.0 8.36800 1   sH    sN    sC    sO     9    8.36800   7.779     1
H N C O 9 180.0 10.46000 2   sH    sN    sC    sO     9    10.46000  9.724     2
HB N C OB 9 0.0 8.36800 1  sHB    sN    sC   sOB     9    8.36800   7.779     1
HB N C OB 9 180.0 10.46000 2  sHB    sN    sC   sOB     9    10.46000  9.724     2
HO O3 C8 CT 9 0.0 0.35982 1  sHO   sO3   sC8   sCT     9    0.35982   0.334     1
HO O3 C8 CT 9 0.0 0.41840 3  sHO   sO3   sC8   sCT     9    0.41840   0.389     3
HO O3 C8 CT 9 180.0 0.68199 2  sHO   sO3   sC8   sCT     9    0.68199   0.634     2
HO O3 C8 H1 9 0.0 0.41840 3  sHO   sO3   sC8   sH1     9    0.41840   0.389     3
HO OH C8 CT 9 0.0 0.25104 2  sHO   sOH   sC8   sCT     9    0.25104   0.233     2
HO OH C8 CT 9 0.0 0.83680 3  sHO   sOH   sC8   sCT     9    0.83680   0.778     3
HO OH C8 CT 9 0.0 3.13800 1  sHO   sOH   sC8   sCT     9    3.13800   2.917     1
HO OH C O 9 0.0 7.94960 1  sHO   sOH    sC    sO     9    7.94960   7.390     1
HO OH C O 9 180.0 9.62320 2  sHO   sOH    sC    sO     9    9.62320   8.946     2
HO OH CT CT 9 0.0 0.66944 3  sHO   sOH   sCT   sCT     9    0.66944   0.622     3
HO OH CT CT 9 0.0 1.04600 1  sHO   sOH   sCT   sCT     9    1.04600   0.972     1
N3 CT CT C3 9 0.0 0.81630 1  sN3   sCT   sCT   sC3     9    0.81630   0.759     1
N3 CT CT C3 9 180.0 3.53925 2  sN3   sCT   sCT   sC3     9    3.53925   3.290     2
N3 CT CT C6 9 180.0 11.02568 1  sN3   sCT   sCT   sC6     9    11.02568  10.250    1
N3 CT CT C6 9 180.0 4.98022 2  sN3   sCT   sCT   sC6     9    4.98022   4.630     2
N3 CT CT C6 9 180.0 0.02845 3  sN3   sCT   sCT   sC6     9    0.02845   0.026     3
N3 CT CT C6 9 0.0 1.76858 4  sN3   sCT   sCT   sC6     9    1.76858   1.644     4
N3 CT CT C6 9 0.0 0.96943 5  sN3   sCT   sCT   sC6     9    0.96943   0.901     5
N3 CT CT C6 9 180.0 0.89009 6  sN3   sCT   sCT   sC6     9    0.89009   0.827     6
N C1 C N 9 180.0 2.69445 1   sN   sC1    sC    sN     9    2.69445   2.505     1
N C1 C N 9 180.0 6.68666 2   sN   sC1    sC    sN     9    6.68666   6.216     2
N C1 C N 9 180.0 1.67111 3   sN   sC1    sC    sN     9    1.67111   1.554     3
N C1 C N 9 0.0 0.31419 4   sN   sC1    sC    sN     9    0.31419   0.292     4
N C5 CT CT 9 180.0 4.37772 1   sN   sC5   sCT   sCT     9    4.37772   4.070     1
N C5 CT CT 9 180.0 0.75730 2   sN   sC5   sCT   sCT     9    0.75730   0.704     2
N C5 CT CT 9 180.0 0.14811 3   sN   sC5   sCT   sCT     9    0.14811   0.138     3
N C5 CT CT 9 0.0 0.41966 4   sN   sC5   sCT   sCT     9    0.41966   0.390     4
N C5 CT CT 9 0.0 0.54308 5   sN   sC5   sCT   sCT     9    0.54308   0.505     5
N C5 CT CT 9 180.0 0.44373 6   sN   sC5   sCT   sCT     9    0.44373   0.413     6
N C7 C N 9 180.0 1.88280 1   sN   sC7    sC    sN     9    1.88280   1.750     1
N C7 C N 9 180.0 6.61072 2   sN   sC7    sC    sN     9    6.61072   6.145     2
N C7 C N 9 180.0 2.30120 3   sN   sC7    sC    sN     9    2.30120   2.139     3
N CT C8 CT 9 0.0 0.25104 1   sN   sCT   sC8   sCT     9    0.25104   0.233     1
N CT C8 CT 9 180.0 2.09200 2   sN   sCT   sC8   sCT     9    2.09200   1.945     2
N CT C8 CT 9 0.0 0.62760 3   sN   sCT   sC8   sCT     9    0.62760   0.583     3
N CT C8 CT 9 180.0 0.27196 4   sN   sCT   sC8   sCT     9    0.27196   0.253     4
N CT C8 O3 9 180.0 0.33472 1   sN   sCT   sC8   sO3     9    0.33472   0.311     1
N CT C8 OH 9 180.0 1.04600 1   sN   sCT   sC8   sOH     9    1.04600   0.972     1
N CT C N 9 360.0 0.82425 1   sN   sCT    sC    sN     9    0.82425   0.766     1
N CT C N 9 180.0 6.04588 2   sN   sCT    sC    sN     9    6.04588   5.620     2
N CT C N 9 180.0 2.00414 3   sN   sCT    sC    sN     9    2.00414   1.863     3
N CT C N 9 360.0 0.07991 4   sN   sCT    sC    sN     9    0.07991   0.074     4
N CT C N 9 360.0 0.01674 5   sN   sCT    sC    sN     9    0.01674   0.016     5
N CT CT C3 9 0.0 0.81630 1   sN   sCT   sCT   sC3     9    0.81630   0.759     1
N CT CT C3 9 180.0 3.53925 2   sN   sCT   sCT   sC3     9    3.53925   3.290     2
N CT CT C5 9 180.0 2.63592 1   sN   sCT   sCT   sC5     9    2.63592   2.450     1
N CT CT C6 9 180.0 12.05410 1   sN   sCT   sCT   sC6     9    12.05410  11.206    1
N CT CT C6 9 180.0 5.06682 2   sN   sCT   sCT   sC6     9    5.06682   4.710     2
N CT CT C6 9 0.0 0.25941 3   sN   sCT   sCT   sC6     9    0.25941   0.241     3
N CT CT C6 9 0.0 1.02508 4   sN   sCT   sCT   sC6     9    1.02508   0.953     4
N CT CT C6 9 0.0 0.54810 5   sN   sCT   sCT   sC6     9    0.54810   0.510     5
N CT CT C6 9 180.0 0.59413 6   sN   sCT   sCT   sC6     9    0.59413   0.552     6
N CT CT C9 9 0.0 0.41840 1   sN   sCT   sCT   sC9     9    0.41840   0.389     1
N CT CT CC 9 180.0 1.67360 1   sN   sCT   sCT   sCC     9    1.67360   1.556     1
N CT CT SH 9 180.0 2.30120 1   sN   sCT   sCT   sSH     9    2.30120   2.139     1
N CT CT SH 9 180.0 2.63592 2   sN   sCT   sCT   sSH     9    2.63592   2.450     2
N CT CT SH 9 180.0 0.25104 3   sN   sCT   sCT   sSH     9    0.25104   0.233     3
N CT CT SH 9 180.0 0.12552 4   sN   sCT   sCT   sSH     9    0.12552   0.117     4
O C OS CT 9 180.0 5.85760 1   sO    sC   sOS   sCT     9    5.85760   5.445     1
O C OS CT 9 180.0 11.29680 2   sO    sC   sOS   sCT     9    11.29680  10.502    2
OH CT CT OH 9 0.0 0.60250 3  sOH   sCT   sCT   sOH     9    0.60250   0.560     3
OH CT CT OH 9 0.0 4.91620 2  sOH   sCT   sCT   sOH     9    4.91620   4.570     2
OH P OS CT 9 0.0 1.04600 3  sOH    sP   sOS   sCT     9    1.04600   0.972     3
OH P OS CT 9 0.0 5.02080 2  sOH    sP   sOS   sCT     9    5.02080   4.667     2
OS CT CT OH 9 0.0 0.60250 3  sOS   sCT   sCT   sOH     9    0.60250   0.560     3
OS CT CT OH 9 0.0 4.91620 2  sOS   sCT   sCT   sOH     9    4.91620   4.570     2
OS CT CT OS 9 0.0 4.91620 2  sOS   sCT   sCT   sOS     9    4.91620   4.570     2
OS CT CT OS 9 0.0 0.60250 3  sOS   sCT   sCT   sOS     9    0.60250   0.560     3
OS CT N* CK 9 0.0 10.46000 1  sOS   sCT   sN*   sCK     9    10.46000  9.724     1
OS CT N* CM 9 0.0 10.46000 1  sOS   sCT   sN*   sCM     9    10.46000  9.724     1
OS P OS CT 9 0.0 5.02080 2  sOS    sP   sOS   sCT     9    5.02080   4.667     2
OS P OS CT 9 0.0 1.04600 3  sOS    sP   sOS   sCT     9    1.04600   0.972     3
N CT CT CA 9 0.0 0.00000 0   sN   sCT   sCT   sCA     9    0.00000   0.000     0
N CT CT C* 9 0.0 0.00000 0   sN   sCT   sCT   sC*     9    0.00000   0.000     0
CT CT C9 S 9 0.0 0.00000 0  sCT   sCT   sC9    sS     9    0.00000   0.000     0
CT CT C9 CT 9 0.0 0.00000 0  sCT   sCT   sC9   sCT     9    0.00000   0.000     0
X C1 N3 X 9 0.0 0.65084 3    X   sC1   sN3     X     9    0.65084   0.605     3
X C5 N X 9 180.0 10.46000 2    X   sC5    sN     X     9    10.46000  9.724     2
X C7 CT X 9 0.0 0.65084 3    X   sC7   sCT     X     9    0.65084   0.605     3
X C7 N3 X 9 0.0 0.65084 3    X   sC7   sN3     X     9    0.65084   0.605     3
X C8 O3 X 9 0.0 0.69873 3    X   sC8   sO3     X     9    0.69873   0.650     3
X C8 OH X 9 0.0 0.69873 3    X   sC8   sOH     X     9    0.69873   0.650     3
X C9 S X 9 0.0 1.39327 3    X   sC9    sS     X     9    1.39327   1.295     3
X CA CA X 9 180.0 15.16700 2    X   sCA   sCA     X     9    15.16700  14.100    2
X CA CB X 9 180.0 14.64400 2    X   sCA   sCB     X     9    14.64400  13.613    2
X CA CM X 9 180.0 10.66920 2    X   sCA   sCM     X     9    10.66920  9.918     2
X CA CN X 9 180.0 15.16700 2    X   sCA   sCN     X     9    15.16700  14.100    2
X CA N2 X 9 180.0 10.04160 2    X   sCA   sN2     X     9    10.04160  9.335     2
X CA NA X 9 180.0 6.27600 2    X   sCA   sNA     X     9    6.27600   5.834     2
X CA NC X 9 180.0 20.08320 2    X   sCA   sNC     X     9    20.08320  18.670    2
X CA OH X 9 180.0 3.76560 2    X   sCA   sOH     X     9    3.76560   3.501     2
X CB CB X 9 180.0 22.80280 2    X   sCB   sCB     X     9    22.80280  21.198    2
X CB CN X 9 180.0 12.55200 2    X   sCB   sCN     X     9    12.55200  11.669    2
X CB NB X 9 180.0 10.66920 2    X   sCB   sNB     X     9    10.66920  9.918     2
X CB NC X 9 180.0 17.36360 2    X   sCB   sNC     X     9    17.36360  16.142    2
X CB N* X 9 180.0 6.90360 2    X   sCB   sN*     X     9    6.90360   6.418     2
X C CA X 9 180.0 15.16700 2    X    sC   sCA     X     9    15.16700  14.100    2
X C CB X 9 180.0 12.55200 2    X    sC   sCB     X     9    12.55200  11.669    2
X C* CB X 9 180.0 7.00820 2    X   sC*   sCB     X     9    7.00820   6.515     2
X CC CV X 9 180.0 21.54760 2    X   sCC   sCV     X     9    21.54760  20.031    2
X CC CW X 9 180.0 22.48900 2    X   sCC   sCW     X     9    22.48900  20.906    2
X C CM X 9 180.0 9.10020 2    X    sC   sCM     X     9    9.10020   8.460     2
X CC NA X 9 180.0 5.85760 2    X   sCC   sNA     X     9    5.85760   5.445     2
X CC NB X 9 180.0 10.04160 2    X   sCC   sNB     X     9    10.04160  9.335     2
X C* CW X 9 180.0 27.30060 2    X   sC*   sCW     X     9    27.30060  25.379    2
X C C X 9 180.0 15.16700 2    X    sC    sC     X     9    15.16700  14.100    2
X CK NB X 9 180.0 41.84000 2    X   sCK   sNB     X     9    41.84000  38.895    2
X CK N* X 9 180.0 7.11280 2    X   sCK   sN*     X     9    7.11280   6.612     2
X CM CM X 9 180.0 27.82360 2    X   sCM   sCM     X     9    27.82360  25.865    2
X CM N* X 9 180.0 7.74040 2    X   sCM   sN*     X     9    7.74040   7.196     2
X CM OS X 9 180.0 4.39320 2    X   sCM   sOS     X     9    4.39320   4.084     2
X C NA X 9 180.0 5.64840 2    X    sC   sNA     X     9    5.64840   5.251     2
X C NC X 9 180.0 16.73600 2    X    sC   sNC     X     9    16.73600  15.558    2
X CN NA X 9 180.0 6.38060 2    X   sCN   sNA     X     9    6.38060   5.932     2
X C N X 9 180.0 10.46000 2    X    sC    sN     X     9    10.46000  9.724     2
X C N* X 9 180.0 6.06680 2    X    sC   sN*     X     9    6.06680   5.640     2
X C OH X 9 180.0 9.62320 2    X    sC   sOH     X     9    9.62320   8.946     2
X C OS X 9 180.0 11.29680 2    X    sC   sOS     X     9    11.29680  10.502    2
X C O X 9 180.0 11.71520 2    X    sC    sO     X     9    11.71520  10.891    2
X C OB X 9 180.0 11.71520 2    X    sC   sOB     X     9    11.71520  10.891    2
X CQ NC X 9 180.0 28.45120 2    X   sCQ   sNC     X     9    28.45120  26.449    2
X CR NA X 9 180.0 9.72780 2    X   sCR   sNA     X     9    9.72780   9.043     2
X CR NB X 9 180.0 20.92000 2    X   sCR   sNB     X     9    20.92000  19.448    2
X CT C8 X 9 0.0 0.64852 3    X   sCT   sC8     X     9    0.64852   0.603     3
X CT C9 X 9 0.0 0.64852 3    X   sCT   sC9     X     9    0.64852   0.603     3
X CT CT X 9 0.0 0.65084 3    X   sCT   sCT     X     9    0.65084   0.605     3
X CT N3 X 9 0.0 0.65084 3    X   sCT   sN3     X     9    0.65084   0.605     3
X CT OH X 9 0.0 0.69733 3    X   sCT   sOH     X     9    0.69733   0.648     3
X CT OS X 9 0.0 1.60387 3    X   sCT   sOS     X     9    1.60387   1.491     3
X CT SH X 9 0.0 1.04600 3    X   sCT   sSH     X     9    1.04600   0.972     3
X CT S X 9 0.0 1.39467 3    X   sCT    sS     X     9    1.39467   1.297     3
X CV NB X 9 180.0 10.04160 2    X   sCV   sNB     X     9    10.04160  9.335     2
X CW NA X 9 180.0 6.27600 2    X   sCW   sNA     X     9    6.27600   5.834     2
X OH P X 9 0.0 1.04600 3    X   sOH    sP     X     9    1.04600   0.972     3
X OS P X 9 0.0 1.04600 3    X   sOS    sP     X     9    1.04600   0.972     3
X C1 N X 9 0.0 0.00000 0    X   sC1    sN     X     9    0.00000   0.000     0
X C C1 X 9 0.0 0.00000 0    X    sC   sC1     X     9    0.00000   0.000     0
X C C9 X 9 0.0 0.00000 0    X    sC   sC9     X     9    0.00000   0.000     0
X C CT X 9 0.0 0.00000 0    X    sC   sCT     X     9    0.00000   0.000     0
X CA CT X 9 0.0 0.00000 0    X   sCA   sCT     X     9    0.00000   0.000     0
X CC CT X 9 0.0 0.00000 0    X   sCC   sCT     X     9    0.00000   0.000     0
X CM CT X 9 0.0 0.00000 0    X   sCM   sCT     X     9    0.00000   0.000     0
X CT N X 9 0.0 0.00000 0    X   sCT    sN     X     9    0.00000   0.000     0
X CT N* X 9 0.0 0.00000 0    X   sCT   sN*     X     9    0.00000   0.000     0
X CT N2 X 9 0.0 0.00000 0    X   sCT   sN2     X     9    0.00000   0.000     0
X C* CT X 9 0.0 0.00000 0    X   sC*   sCT     X     9    0.00000   0.000     0
X C7 N X 9 0.0 0.00000 0    X   sC7    sN     X     9    0.00000   0.000     0
X C C7 X 9 0.0 0.00000 0    X    sC   sC7     X     9    0.00000   0.000     0
X C5 CT X 9 0.0 0.00000 0    X   sC5   sCT     X     9    0.00000   0.000     0
X C6 CT X 9 0.0 0.00000 0    X   sC6   sCT     X     9    0.00000   0.000     0
C C1 N O 4 180.0 4.60240 2   sC   sC1    sN    sO     4    4.60240   3.977     2
C C1 N OB 4 180.0 4.60240 2   sC   sC1    sN   sOB     4    4.60240   3.977     2
C C1 N H 4 180.0 4.60240 2   sC   sC1    sN    sH     4    4.60240   3.977     2
C C1 N HB 4 180.0 4.60240 2   sC   sC1    sN   sHB     4    4.60240   3.977     2
C9 O C OH 4 180.0 43.93200 2  sC9    sO    sC   sOH     4    43.93200  37.966    2
CB CK N* CT 4 180.0 4.18400 2  sCB   sCK   sN*   sCT     4    4.18400   3.616     2
C CM N* CT 4 180.0 4.18400 2   sC   sCM   sN*   sCT     4    4.18400   3.616     2
CT O C OH 4 180.0 43.93200 2  sCT    sO    sC   sOH     4    43.93200  37.966    2
CT CV CC NA 4 180.0 4.60240 2  sCT   sCV   sCC   sNA     4    4.60240   3.977     2
CT CW CC NB 4 180.0 4.60240 2  sCT   sCW   sCC   sNB     4    4.60240   3.977     2
CT CC CW NB 4 180.0 4.60240 2  sCT   sCC   sCW   sNB     4    4.60240   3.977     2
CT CW CC NA 4 180.0 4.60240 2  sCT   sCW   sCC   sNA     4    4.60240   3.977     2
CB CT C* CW 4 180.0 4.60240 2  sCB   sCT   sC*   sCW     4    4.60240   3.977     2
CA CA CA CT 4 180.0 4.60240 2  sCA   sCA   sCA   sCT     4    4.60240   3.977     2
C CM CM CT 4 180.0 4.60240 2   sC   sCM   sCM   sCT     4    4.60240   3.977     2
CM N2 CA NC 4 180.0 4.60240 2  sCM   sN2   sCA   sNC     4    4.60240   3.977     2
CB N2 CA NC 4 180.0 4.60240 2  sCB   sN2   sCA   sNC     4    4.60240   3.977     2
N2 NA CA NC 4 180.0 4.60240 2  sN2   sNA   sCA   sNC     4    4.60240   3.977     2
CA CA C OH 4 180.0 4.60240 2  sCA   sCA    sC   sOH     4    4.60240   3.977     2
CA CA CA OH 4 180.0 4.60240 2  sCA   sCA   sCA   sOH     4    4.60240   3.977     2
H5 O C OH 4 180.0 4.60240 2  sH5    sO    sC   sOH     4    4.60240   3.977     2
H5 O C OS 4 180.0 4.60240 2  sH5    sO    sC   sOS     4    4.60240   3.977     2
CM CT CM HA 4 180.0 4.60240 2  sCM   sCT   sCM   sHA     4    4.60240   3.977     2
Br CA CA CA 4 180.0 4.60240 2  sBr   sCA   sCA   sCA     4    4.60240   3.977     2
CM H4 C O 4 180.0 4.60240 2  sCM   sH4    sC    sO     4    4.60240   3.977     2
C CT N H 4 180.0 4.60240 2   sC   sCT    sN    sH     4    4.60240   3.977     2
C CT N HB 4 180.0 4.60240 2   sC   sCT    sN   sHB     4    4.60240   3.977     2
C CT N O 4 180.0 4.60240 2   sC   sCT    sN    sO     4    4.60240   3.977     2
C C7 N O 4 180.0 4.60240 2   sC   sC7    sN    sO     4    4.60240   3.977     2
C CT N OB 4 180.0 4.60240 2   sC   sCT    sN   sOB     4    4.60240   3.977     2
C C7 N OB 4 180.0 4.60240 2   sC   sC7    sN   sOB     4    4.60240   3.977     2
C C7 N H 4 180.0 4.60240 2   sC   sC7    sN    sH     4    4.60240   3.977     2
C C7 N HB 4 180.0 4.60240 2   sC   sC7    sN   sHB     4    4.60240   3.977     2
C5 CT N O 4 180.0 4.60240 2  sC5   sCT    sN    sO     4    4.60240   3.977     2
C5 CT N OB 4 180.0 4.60240 2  sC5   sCT    sN   sOB     4    4.60240   3.977     2
C5 CT N H 4 180.0 4.60240 2  sC5   sCT    sN    sH     4    4.60240   3.977     2
C5 CT N HB 4 180.0 4.60240 2  sC5   sCT    sN   sHB     4    4.60240   3.977     2
X CT N C1 4 180.0 4.18400 2    X   sCT    sN   sC1     4    4.18400   3.616     2
X CT N C7 4 180.0 4.18400 2    X   sCT    sN   sC7     4    4.18400   3.616     2
X O2 C6 O2 4 180.0 43.93200 2    X   sO2   sC6   sO2     4    43.93200  37.966    2
X O2 C O2 4 180.0 43.93200 2    X   sO2    sC   sO2     4    43.93200  37.966    2
X N2 CA N2 4 180.0 43.93200 2    X   sN2   sCA   sN2     4    43.93200  37.966    2
X CT N CT 4 180.0 4.18400 2    X   sCT    sN   sCT     4    4.18400   3.616     2
X X C O 4 180.0 43.93200 2    X     X    sC    sO     4    43.93200  37.966    2
X X C OB 4 180.0 43.93200 2    X     X    sC   sOB     4    43.93200  37.966    2
X X N H 4 180.0 4.18400 2    X     X    sN    sH     4    4.18400   3.616     2
X X N2 H 4 180.0 4.18400 2    X     X   sN2    sH     4    4.18400   3.616     2
X X NA H 4 180.0 4.18400 2    X     X   sNA    sH     4    4.18400   3.616     2
X X CA HA 4 180.0 4.60240 2    X     X   sCA   sHA     4    4.60240   3.977     2
X X CW H4 4 180.0 4.60240 2    X     X   sCW   sH4     4    4.60240   3.977     2
X X CR H5 4 180.0 4.60240 2    X     X   sCR   sH5     4    4.60240   3.977     2
X X CV H4 4 180.0 4.60240 2    X     X   sCV   sH4     4    4.60240   3.977     2
X X CQ H5 4 180.0 4.60240 2    X     X   sCQ   sH5     4    4.60240   3.977     2
X X CK H5 4 180.0 4.60240 2    X     X   sCK   sH5     4    4.60240   3.977     2
X X CM H4 4 180.0 4.60240 2    X     X   sCM   sH4     4    4.60240   3.977     2
X X CM HA 4 180.0 4.60240 2    X     X   sCM   sHA     4    4.60240   3.977     2
X X CA H4 4 180.0 4.60240 2    X     X   sCA   sH4     4    4.60240   3.977     2
X X CA H5 4 180.0 4.60240 2    X     X   sCA   sH5     4    4.60240   3.977     2
X X C5 O 4 180.0 43.93200 2    X     X   sC5    sO     4    43.93200  37.966    2
C8 CT C N 9 0.0 0.83680 1  sC8   sCT    sC    sN     9    0.83680   0.723     1
C8 CT C N 9 0.0 0.83680 2  sC8   sCT    sC    sN     9    0.83680   0.723     2
C8 CT C N 9 0.0 1.67360 3  sC8   sCT    sC    sN     9    1.67360   1.446     3
C8 CT N C 9 0.0 8.36800 1  sC8   sCT    sN    sC     9    8.36800   7.232     1
C8 CT N C 9 0.0 8.36800 2  sC8   sCT    sN    sC     9    8.36800   7.232     2
C8 CT N C 9 0.0 1.67360 3  sC8   sCT    sN    sC     9    1.67360   1.446     3
C CT C8 O3 9 180.0 4.18400 1   sC   sCT   sC8   sO3     9    4.18400   3.616     1
C CT C8 OH 9 180.0 3.76560 1   sC   sCT   sC8   sOH     9    3.76560   3.254     1
C CT CT C4 9 0.0 2.39074 1   sC   sCT   sCT   sC4     9    2.39074   2.066     1
C CT CT C4 9 180.0 1.49913 2   sC   sCT   sCT   sC4     9    1.49913   1.296     2
C CT CT C4 9 0.0 0.56400 3   sC   sCT   sCT   sC4     9    0.56400   0.487     3
C CT CT C5 9 0.0 0.71421 1   sC   sCT   sCT   sC5     9    0.71421   0.617     1
C CT CT C5 9 180.0 2.49241 2   sC   sCT   sCT   sC5     9    2.49241   2.154     2
C CT CT C5 9 0.0 0.49580 3   sC   sCT   sCT   sC5     9    0.49580   0.428     3
C CT CT C5 9 180.0 1.74556 4   sC   sCT   sCT   sC5     9    1.74556   1.509     4
C CT CT C5 9 0.0 0.43597 5   sC   sCT   sCT   sC5     9    0.43597   0.377     5
C CT CT C5 9 180.0 0.42142 6   sC   sCT   sCT   sC5     9    0.42142   0.364     6
C CT CT C* 9 0.0 1.21336 1   sC   sCT   sCT   sC*     9    1.21336   1.049     1
C CT CT C9 9 0.0 1.25520 1   sC   sCT   sCT   sC9     9    1.25520   1.085     1
C CT CT CA 9 0.0 2.17568 1   sC   sCT   sCT   sCA     9    2.17568   1.880     1
C CT CT CC 9 0.0 2.92880 1   sC   sCT   sCT   sCC     9    2.92880   2.531     1
C CT CT SH 9 180.0 0.66944 1   sC   sCT   sCT   sSH     9    0.66944   0.579     1
Cl CT CT Cl 9 180.0 1.88280 1  sCl   sCT   sCT   sCl     9    1.88280   1.627     1
CM CM C O 9 180.0 9.10020 2  sCM   sCM    sC    sO     9    9.10020   7.864     2
CM CM C O 9 0.0 1.25520 3  sCM   sCM    sC    sO     9    1.25520   1.085     3
C N C1 C 9 0.0 0.35267 1   sC    sN   sC1    sC     9    0.35267   0.305     1
C N C1 C 9 0.0 1.59541 2   sC    sN   sC1    sC     9    1.59541   1.379     2
C N C1 C 9 180.0 0.08381 3   sC    sN   sC1    sC     9    0.08381   0.072     3
C N C1 C 9 0.0 0.32396 4   sC    sN   sC1    sC     9    0.32396   0.280     4
C N C7 C 9 0.0 1.12968 2   sC    sN   sC7    sC     9    1.12968   0.976     2
C N C7 C 9 0.0 1.75728 3   sC    sN   sC7    sC     9    1.75728   1.519     3
C N CT C 9 180.0 0.14226 1   sC    sN   sCT    sC     9    0.14226   0.123     1
C N CT C 9 0.0 1.40164 2   sC    sN   sCT    sC     9    1.40164   1.211     2
C N CT C 9 0.0 2.27610 3   sC    sN   sCT    sC     9    2.27610   1.967     3
C N CT C 9 0.0 0.33472 4   sC    sN   sCT    sC     9    0.33472   0.289     4
CT C7 C N 9 0.0 0.83680 1  sCT   sC7    sC    sN     9    0.83680   0.723     1
CT C7 C N 9 0.0 0.83680 2  sCT   sC7    sC    sN     9    0.83680   0.723     2
CT C7 C N 9 0.0 1.67360 3  sCT   sC7    sC    sN     9    1.67360   1.446     3
CT C7 N C 9 0.0 8.36800 1  sCT   sC7    sN    sC     9    8.36800   7.232     1
CT C7 N C 9 0.0 8.36800 2  sCT   sC7    sN    sC     9    8.36800   7.232     2
CT C7 N C 9 0.0 1.67360 3  sCT   sC7    sN    sC     9    1.67360   1.446     3
CT C9 C O2 9 180.0 2.51040 2  sCT   sC9    sC   sO2     9    2.51040   2.169     2
CT C9 C O 9 180.0 2.51040 2  sCT   sC9    sC    sO     9    2.51040   2.169     2
CT C9 C OB 9 180.0 2.51040 2  sCT   sC9    sC   sOB     9    2.51040   2.169     2
CT CM CM CT 9 180.0 27.82360 2  sCT   sCM   sCM   sCT     9    27.82360  24.045    2
CT CM CM CT 9 180.0 7.94960 1  sCT   sCM   sCM   sCT     9    7.94960   6.870     1
CT CT C4 CT 9 0.0 0.62760 3  sCT   sCT   sC4   sCT     9    0.62760   0.542     3
CT CT C5 O 9 180.0 4.18400 1  sCT   sCT   sC5    sO     9    4.18400   3.616     1
CT CT C6 O2 9 180.0 0.77822 4  sCT   sCT   sC6   sO2     9    0.77822   0.673     4
CT CT C6 O2 9 180.0 1.48114 6  sCT   sCT   sC6   sO2     9    1.48114   1.280     6
CT CT C6 O2 9 180.0 3.65263 2  sCT   sCT   sC6   sO2     9    3.65263   3.157     2
CT CT C* CW 9 0.0 5.02080 1  sCT   sCT   sC*   sCW     9    5.02080   4.339     1
CT CT C N 9 0.0 0.83680 1  sCT   sCT    sC    sN     9    0.83680   0.723     1
CT CT C N 9 0.0 0.83680 2  sCT   sCT    sC    sN     9    0.83680   0.723     2
CT CT C N 9 0.0 1.67360 3  sCT   sCT    sC    sN     9    1.67360   1.446     3
CT CT CT C3 9 0.0 0.62760 3  sCT   sCT   sCT   sC3     9    0.62760   0.542     3
CT CT CT C7 9 0.0 0.75312 3  sCT   sCT   sCT   sC7     9    0.75312   0.651     3
CT CT CT C7 9 180.0 0.83680 1  sCT   sCT   sCT   sC7     9    0.83680   0.723     1
CT CT CT C7 9 180.0 1.04600 2  sCT   sCT   sCT   sC7     9    1.04600   0.904     2
CT CT CT CT 9 0.0 0.62760 3  sCT   sCT   sCT   sCT     9    0.62760   0.542     3
CT CT N C 9 0.0 1.67360 3  sCT   sCT    sN    sC     9    1.67360   1.446     3
CT CT N C 9 0.0 8.36800 1  sCT   sCT    sN    sC     9    8.36800   7.232     1
CT CT N C 9 0.0 8.36800 2  sCT   sCT    sN    sC     9    8.36800   7.232     2
CT CT OS C 9 0.0 1.60247 3  sCT   sCT   sOS    sC     9    1.60247   1.385     3
CT CT OS C 9 180.0 3.34720 1  sCT   sCT   sOS    sC     9    3.34720   2.893     1
CT CT OS CT 9 0.0 1.60247 3  sCT   sCT   sOS   sCT     9    1.60247   1.385     3
CT CT OS CT 9 180.0 0.41840 2  sCT   sCT   sOS   sCT     9    0.41840   0.362     2
CT CT SH HS 9 0.0 0.83680 3  sCT   sCT   sSH   sHS     9    0.83680   0.723     3
CT CT SH HS 9 0.0 2.09200 2  sCT   sCT   sSH   sHS     9    2.09200   1.808     2
CT OS CT N* 9 0.0 1.60247 3  sCT   sOS   sCT   sN*     9    1.60247   1.385     3
CT OS CT N* 9 0.0 2.71960 2  sCT   sOS   sCT   sN*     9    2.71960   2.350     2
CT OS CT OS 9 0.0 0.41840 3  sCT   sOS   sCT   sOS     9    0.41840   0.362     3
CT OS CT OS 9 180.0 3.55640 2  sCT   sOS   sCT   sOS     9    3.55640   3.073     2
CT OS CT OS 9 180.0 5.64840 1  sCT   sOS   sCT   sOS     9    5.64840   4.881     1
CT S S CT 9 0.0 14.64400 2  sCT    sS    sS   sCT     9    14.64400  12.655    2
CT S S CT 9 0.0 2.51040 3  sCT    sS    sS   sCT     9    2.51040   2.169     3
F CT CT F 9 180.0 5.02080 1   sF   sCT   sCT    sF     9    5.02080   4.339     1
H1 C1 C O 9 0.0 3.34720 1  sH1   sC1    sC    sO     9    3.34720   2.893     1
H1 C1 C O 9 180.0 0.33472 3  sH1   sC1    sC    sO     9    0.33472   0.289     3
H1 C7 C O 9 0.0 3.34720 1  sH1   sC7    sC    sO     9    3.34720   2.893     1
H1 C7 C O 9 180.0 0.33472 3  sH1   sC7    sC    sO     9    0.33472   0.289     3
H1 CT C O 9 0.0 3.34720 1  sH1   sCT    sC    sO     9    3.34720   2.893     1
H1 CT C O 9 180.0 0.33472 3  sH1   sCT    sC    sO     9    0.33472   0.289     3
H1 C1 C OB 9 0.0 3.34720 1  sH1   sC1    sC   sOB     9    3.34720   2.893     1
H1 C1 C OB 9 180.0 0.33472 3  sH1   sC1    sC   sOB     9    0.33472   0.289     3
H1 C7 C OB 9 0.0 3.34720 1  sH1   sC7    sC   sOB     9    3.34720   2.893     1
H1 C7 C OB 9 180.0 0.33472 3  sH1   sC7    sC   sOB     9    0.33472   0.289     3
H1 CT C OB 9 0.0 3.34720 1  sH1   sCT    sC   sOB     9    3.34720   2.893     1
H1 CT C OB 9 180.0 0.33472 3  sH1   sCT    sC   sOB     9    0.33472   0.289     3
H1 CT CT Br 9 0.0 2.30120 1  sH1   sCT   sCT   sBr     9    2.30120   1.989     1
H1 CT CT Cl 9 0.0 1.04600 1  sH1   sCT   sCT   sCl     9    1.04600   0.904     1
H1 CT CT F 9 0.0 0.79496 1  sH1   sCT   sCT    sF     9    0.79496   0.687     1
H1 CT CT OH 9 0.0 1.04600 1  sH1   sCT   sCT   sOH     9    1.04600   0.904     1
H1 CT CT OS 9 0.0 1.04600 1  sH1   sCT   sCT   sOS     9    1.04600   0.904     1
HC C3 CT CT 9 0.0 0.66944 3  sHC   sC3   sCT   sCT     9    0.66944   0.579     3
HC C4 CT CT 9 0.0 0.66944 3  sHC   sC4   sCT   sCT     9    0.66944   0.579     3
HC C4 CT HC 9 0.0 0.62760 3  sHC   sC4   sCT   sHC     9    0.62760   0.542     3
HC CT C3 HC 9 0.0 0.62760 3  sHC   sCT   sC3   sHC     9    0.62760   0.542     3
HC CT C4 CT 9 0.0 0.66944 3  sHC   sCT   sC4   sCT     9    0.66944   0.579     3
HC CT C5 O 9 0.0 3.34720 1  sHC   sCT   sC5    sO     9    3.34720   2.893     1
HC CT C5 O 9 180.0 0.33472 3  sHC   sCT   sC5    sO     9    0.33472   0.289     3
HC CT CM CM 9 0.0 4.81160 1  sHC   sCT   sCM   sCM     9    4.81160   4.158     1
HC CT CM CM 9 180.0 1.58992 3  sHC   sCT   sCM   sCM     9    1.58992   1.374     3
HC CT C O 9 0.0 3.34720 1  sHC   sCT    sC    sO     9    3.34720   2.893     1
HC CT C O 9 180.0 0.33472 3  sHC   sCT    sC    sO     9    0.33472   0.289     3
HC CT C OB 9 0.0 3.34720 1  sHC   sCT    sC   sOB     9    3.34720   2.893     1
HC CT C OB 9 180.0 0.33472 3  sHC   sCT    sC   sOB     9    0.33472   0.289     3
HC CT CT Br 9 0.0 2.30120 1  sHC   sCT   sCT   sBr     9    2.30120   1.989     1
HC CT CT C3 9 0.0 0.66944 3  sHC   sCT   sCT   sC3     9    0.66944   0.579     3
HC CT CT C4 9 0.0 0.66944 3  sHC   sCT   sCT   sC4     9    0.66944   0.579     3
HC CT CT C7 9 0.0 0.66944 3  sHC   sCT   sCT   sC7     9    0.66944   0.579     3
HC CT CT Cl 9 0.0 1.04600 1  sHC   sCT   sCT   sCl     9    1.04600   0.904     1
HC CT CT CT 9 0.0 0.66944 3  sHC   sCT   sCT   sCT     9    0.66944   0.579     3
HC CT CT F 9 0.0 0.79496 1  sHC   sCT   sCT    sF     9    0.79496   0.687     1
HC CT CT HC 9 0.0 0.62760 3  sHC   sCT   sCT   sHC     9    0.62760   0.542     3
HC CT CT OH 9 0.0 1.04600 1  sHC   sCT   sCT   sOH     9    1.04600   0.904     1
HC CT CT OS 9 0.0 1.04600 1  sHC   sCT   sCT   sOS     9    1.04600   0.904     1
H N C5 O 9 0.0 8.36800 1   sH    sN   sC5    sO     9    8.36800   7.232     1
H N C5 O 9 180.0 10.46000 2   sH    sN   sC5    sO     9    10.46000  9.040     2
H N C O 9 0.0 8.36800 1   sH    sN    sC    sO     9    8.36800   7.232     1
H N C O 9 180.0 10.46000 2   sH    sN    sC    sO     9    10.46000  9.040     2
HB N C OB 9 0.0 8.36800 1  sHB    sN    sC   sOB     9    8.36800   7.232     1
HB N C OB 9 180.0 10.46000 2  sHB    sN    sC   sOB     9    10.46000  9.040     2
HO O3 C8 CT 9 0.0 0.35982 1  sHO   sO3   sC8   sCT     9    0.35982   0.311     1
HO O3 C8 CT 9 0.0 0.41840 3  sHO   sO3   sC8   sCT     9    0.41840   0.362     3
HO O3 C8 CT 9 180.0 0.68199 2  sHO   sO3   sC8   sCT     9    0.68199   0.589     2
HO O3 C8 H1 9 0.0 0.41840 3  sHO   sO3   sC8   sH1     9    0.41840   0.362     3
HO OH C8 CT 9 0.0 0.25104 2  sHO   sOH   sC8   sCT     9    0.25104   0.217     2
HO OH C8 CT 9 0.0 0.83680 3  sHO   sOH   sC8   sCT     9    0.83680   0.723     3
HO OH C8 CT 9 0.0 3.13800 1  sHO   sOH   sC8   sCT     9    3.13800   2.712     1
HO OH C O 9 0.0 7.94960 1  sHO   sOH    sC    sO     9    7.94960   6.870     1
HO OH C O 9 180.0 9.62320 2  sHO   sOH    sC    sO     9    9.62320   8.316     2
HO OH CT CT 9 0.0 0.66944 3  sHO   sOH   sCT   sCT     9    0.66944   0.579     3
HO OH CT CT 9 0.0 1.04600 1  sHO   sOH   sCT   sCT     9    1.04600   0.904     1
N3 CT CT C3 9 0.0 0.81630 1  sN3   sCT   sCT   sC3     9    0.81630   0.705     1
N3 CT CT C3 9 180.0 3.53925 2  sN3   sCT   sCT   sC3     9    3.53925   3.059     2
N3 CT CT C6 9 180.0 11.02568 1  sN3   sCT   sCT   sC6     9    11.02568  9.528     1
N3 CT CT C6 9 180.0 4.98022 2  sN3   sCT   sCT   sC6     9    4.98022   4.304     2
N3 CT CT C6 9 180.0 0.02845 3  sN3   sCT   sCT   sC6     9    0.02845   0.025     3
N3 CT CT C6 9 0.0 1.76858 4  sN3   sCT   sCT   sC6     9    1.76858   1.528     4
N3 CT CT C6 9 0.0 0.96943 5  sN3   sCT   sCT   sC6     9    0.96943   0.838     5
N3 CT CT C6 9 180.0 0.89009 6  sN3   sCT   sCT   sC6     9    0.89009   0.769     6
N C1 C N 9 180.0 2.69445 1   sN   sC1    sC    sN     9    2.69445   2.329     1
N C1 C N 9 180.0 6.68666 2   sN   sC1    sC    sN     9    6.68666   5.779     2
N C1 C N 9 180.0 1.67111 3   sN   sC1    sC    sN     9    1.67111   1.444     3
N C1 C N 9 0.0 0.31419 4   sN   sC1    sC    sN     9    0.31419   0.272     4
N C5 CT CT 9 180.0 4.37772 1   sN   sC5   sCT   sCT     9    4.37772   3.783     1
N C5 CT CT 9 180.0 0.75730 2   sN   sC5   sCT   sCT     9    0.75730   0.654     2
N C5 CT CT 9 180.0 0.14811 3   sN   sC5   sCT   sCT     9    0.14811   0.128     3
N C5 CT CT 9 0.0 0.41966 4   sN   sC5   sCT   sCT     9    0.41966   0.363     4
N C5 CT CT 9 0.0 0.54308 5   sN   sC5   sCT   sCT     9    0.54308   0.469     5
N C5 CT CT 9 180.0 0.44373 6   sN   sC5   sCT   sCT     9    0.44373   0.383     6
N C7 C N 9 180.0 1.88280 1   sN   sC7    sC    sN     9    1.88280   1.627     1
N C7 C N 9 180.0 6.61072 2   sN   sC7    sC    sN     9    6.61072   5.713     2
N C7 C N 9 180.0 2.30120 3   sN   sC7    sC    sN     9    2.30120   1.989     3
N CT C8 CT 9 0.0 0.25104 1   sN   sCT   sC8   sCT     9    0.25104   0.217     1
N CT C8 CT 9 180.0 2.09200 2   sN   sCT   sC8   sCT     9    2.09200   1.808     2
N CT C8 CT 9 0.0 0.62760 3   sN   sCT   sC8   sCT     9    0.62760   0.542     3
N CT C8 CT 9 180.0 0.27196 4   sN   sCT   sC8   sCT     9    0.27196   0.235     4
N CT C8 O3 9 180.0 0.33472 1   sN   sCT   sC8   sO3     9    0.33472   0.289     1
N CT C8 OH 9 180.0 1.04600 1   sN   sCT   sC8   sOH     9    1.04600   0.904     1
N CT C N 9 360.0 0.82425 1   sN   sCT    sC    sN     9    0.82425   0.712     1
N CT C N 9 180.0 6.04588 2   sN   sCT    sC    sN     9    6.04588   5.225     2
N CT C N 9 180.0 2.00414 3   sN   sCT    sC    sN     9    2.00414   1.732     3
N CT C N 9 360.0 0.07991 4   sN   sCT    sC    sN     9    0.07991   0.069     4
N CT C N 9 360.0 0.01674 5   sN   sCT    sC    sN     9    0.01674   0.014     5
N CT CT C3 9 0.0 0.81630 1   sN   sCT   sCT   sC3     9    0.81630   0.705     1
N CT CT C3 9 180.0 3.53925 2   sN   sCT   sCT   sC3     9    3.53925   3.059     2
N CT CT C5 9 180.0 2.63592 1   sN   sCT   sCT   sC5     9    2.63592   2.278     1
N CT CT C6 9 180.0 12.05410 1   sN   sCT   sCT   sC6     9    12.05410  10.417    1
N CT CT C6 9 180.0 5.06682 2   sN   sCT   sCT   sC6     9    5.06682   4.379     2
N CT CT C6 9 0.0 0.25941 3   sN   sCT   sCT   sC6     9    0.25941   0.224     3
N CT CT C6 9 0.0 1.02508 4   sN   sCT   sCT   sC6     9    1.02508   0.886     4
N CT CT C6 9 0.0 0.54810 5   sN   sCT   sCT   sC6     9    0.54810   0.474     5
N CT CT C6 9 180.0 0.59413 6   sN   sCT   sCT   sC6     9    0.59413   0.513     6
N CT CT C9 9 0.0 0.41840 1   sN   sCT   sCT   sC9     9    0.41840   0.362     1
N CT CT CC 9 180.0 1.67360 1   sN   sCT   sCT   sCC     9    1.67360   1.446     1
N CT CT SH 9 180.0 2.30120 1   sN   sCT   sCT   sSH     9    2.30120   1.989     1
N CT CT SH 9 180.0 2.63592 2   sN   sCT   sCT   sSH     9    2.63592   2.278     2
N CT CT SH 9 180.0 0.25104 3   sN   sCT   sCT   sSH     9    0.25104   0.217     3
N CT CT SH 9 180.0 0.12552 4   sN   sCT   sCT   sSH     9    0.12552   0.108     4
O C OS CT 9 180.0 5.85760 1   sO    sC   sOS   sCT     9    5.85760   5.062     1
O C OS CT 9 180.0 11.29680 2   sO    sC   sOS   sCT     9    11.29680  9.763     2
OH CT CT OH 9 0.0 0.60250 3  sOH   sCT   sCT   sOH     9    0.60250   0.521     3
OH CT CT OH 9 0.0 4.91620 2  sOH   sCT   sCT   sOH     9    4.91620   4.249     2
OH P OS CT 9 0.0 1.04600 3  sOH    sP   sOS   sCT     9    1.04600   0.904     3
OH P OS CT 9 0.0 5.02080 2  sOH    sP   sOS   sCT     9    5.02080   4.339     2
OS CT CT OH 9 0.0 0.60250 3  sOS   sCT   sCT   sOH     9    0.60250   0.521     3
OS CT CT OH 9 0.0 4.91620 2  sOS   sCT   sCT   sOH     9    4.91620   4.249     2
OS CT CT OS 9 0.0 4.91620 2  sOS   sCT   sCT   sOS     9    4.91620   4.249     2
OS CT CT OS 9 0.0 0.60250 3  sOS   sCT   sCT   sOS     9    0.60250   0.521     3
OS CT N* CK 9 0.0 10.46000 1  sOS   sCT   sN*   sCK     9    10.46000  9.040     1
OS CT N* CM 9 0.0 10.46000 1  sOS   sCT   sN*   sCM     9    10.46000  9.040     1
OS P OS CT 9 0.0 5.02080 2  sOS    sP   sOS   sCT     9    5.02080   4.339     2
OS P OS CT 9 0.0 1.04600 3  sOS    sP   sOS   sCT     9    1.04600   0.904     3
N CT CT CA 9 0.0 0.00000 0   sN   sCT   sCT   sCA     9    0.00000   0.000     0
N CT CT C* 9 0.0 0.00000 0   sN   sCT   sCT   sC*     9    0.00000   0.000     0
CT CT C9 S 9 0.0 0.00000 0  sCT   sCT   sC9    sS     9    0.00000   0.000     0
CT CT C9 CT 9 0.0 0.00000 0  sCT   sCT   sC9   sCT     9    0.00000   0.000     0
X C1 N3 X 9 0.0 0.65084 3    X   sC1   sN3     X     9    0.65084   0.562     3
X C5 N X 9 180.0 10.46000 2    X   sC5    sN     X     9    10.46000  9.040     2
X C7 CT X 9 0.0 0.65084 3    X   sC7   sCT     X     9    0.65084   0.562     3
X C7 N3 X 9 0.0 0.65084 3    X   sC7   sN3     X     9    0.65084   0.562     3
X C8 O3 X 9 0.0 0.69873 3    X   sC8   sO3     X     9    0.69873   0.604     3
X C8 OH X 9 0.0 0.69873 3    X   sC8   sOH     X     9    0.69873   0.604     3
X C9 S X 9 0.0 1.39327 3    X   sC9    sS     X     9    1.39327   1.204     3
X CA CA X 9 180.0 15.16700 2    X   sCA   sCA     X     9    15.16700  13.107    2
X CA CB X 9 180.0 14.64400 2    X   sCA   sCB     X     9    14.64400  12.655    2
X CA CM X 9 180.0 10.66920 2    X   sCA   sCM     X     9    10.66920  9.220     2
X CA CN X 9 180.0 15.16700 2    X   sCA   sCN     X     9    15.16700  13.107    2
X CA N2 X 9 180.0 10.04160 2    X   sCA   sN2     X     9    10.04160  8.678     2
X CA NA X 9 180.0 6.27600 2    X   sCA   sNA     X     9    6.27600   5.424     2
X CA NC X 9 180.0 20.08320 2    X   sCA   sNC     X     9    20.08320  17.356    2
X CA OH X 9 180.0 3.76560 2    X   sCA   sOH     X     9    3.76560   3.254     2
X CB CB X 9 180.0 22.80280 2    X   sCB   sCB     X     9    22.80280  19.706    2
X CB CN X 9 180.0 12.55200 2    X   sCB   sCN     X     9    12.55200  10.847    2
X CB NB X 9 180.0 10.66920 2    X   sCB   sNB     X     9    10.66920  9.220     2
X CB NC X 9 180.0 17.36360 2    X   sCB   sNC     X     9    17.36360  15.006    2
X CB N* X 9 180.0 6.90360 2    X   sCB   sN*     X     9    6.90360   5.966     2
X C CA X 9 180.0 15.16700 2    X    sC   sCA     X     9    15.16700  13.107    2
X C CB X 9 180.0 12.55200 2    X    sC   sCB     X     9    12.55200  10.847    2
X C* CB X 9 180.0 7.00820 2    X   sC*   sCB     X     9    7.00820   6.056     2
X CC CV X 9 180.0 21.54760 2    X   sCC   sCV     X     9    21.54760  18.621    2
X CC CW X 9 180.0 22.48900 2    X   sCC   sCW     X     9    22.48900  19.435    2
X C CM X 9 180.0 9.10020 2    X    sC   sCM     X     9    9.10020   7.864     2
X CC NA X 9 180.0 5.85760 2    X   sCC   sNA     X     9    5.85760   5.062     2
X CC NB X 9 180.0 10.04160 2    X   sCC   sNB     X     9    10.04160  8.678     2
X C* CW X 9 180.0 27.30060 2    X   sC*   sCW     X     9    27.30060  23.593    2
X C C X 9 180.0 15.16700 2    X    sC    sC     X     9    15.16700  13.107    2
X CK NB X 9 180.0 41.84000 2    X   sCK   sNB     X     9    41.84000  36.158    2
X CK N* X 9 180.0 7.11280 2    X   sCK   sN*     X     9    7.11280   6.147     2
X CM CM X 9 180.0 27.82360 2    X   sCM   sCM     X     9    27.82360  24.045    2
X CM N* X 9 180.0 7.74040 2    X   sCM   sN*     X     9    7.74040   6.689     2
X CM OS X 9 180.0 4.39320 2    X   sCM   sOS     X     9    4.39320   3.797     2
X C NA X 9 180.0 5.64840 2    X    sC   sNA     X     9    5.64840   4.881     2
X C NC X 9 180.0 16.73600 2    X    sC   sNC     X     9    16.73600  14.463    2
X CN NA X 9 180.0 6.38060 2    X   sCN   sNA     X     9    6.38060   5.514     2
X C N X 9 180.0 10.46000 2    X    sC    sN     X     9    10.46000  9.040     2
X C N* X 9 180.0 6.06680 2    X    sC   sN*     X     9    6.06680   5.243     2
X C OH X 9 180.0 9.62320 2    X    sC   sOH     X     9    9.62320   8.316     2
X C OS X 9 180.0 11.29680 2    X    sC   sOS     X     9    11.29680  9.763     2
X C O X 9 180.0 11.71520 2    X    sC    sO     X     9    11.71520  10.124    2
X C OB X 9 180.0 11.71520 2    X    sC   sOB     X     9    11.71520  10.124    2
X CQ NC X 9 180.0 28.45120 2    X   sCQ   sNC     X     9    28.45120  24.588    2
X CR NA X 9 180.0 9.72780 2    X   sCR   sNA     X     9    9.72780   8.407     2
X CR NB X 9 180.0 20.92000 2    X   sCR   sNB     X     9    20.92000  18.079    2
X CT C8 X 9 0.0 0.64852 3    X   sCT   sC8     X     9    0.64852   0.560     3
X CT C9 X 9 0.0 0.64852 3    X   sCT   sC9     X     9    0.64852   0.560     3
X CT CT X 9 0.0 0.65084 3    X   sCT   sCT     X     9    0.65084   0.562     3
X CT N3 X 9 0.0 0.65084 3    X   sCT   sN3     X     9    0.65084   0.562     3
X CT OH X 9 0.0 0.69733 3    X   sCT   sOH     X     9    0.69733   0.603     3
X CT OS X 9 0.0 1.60387 3    X   sCT   sOS     X     9    1.60387   1.386     3
X CT SH X 9 0.0 1.04600 3    X   sCT   sSH     X     9    1.04600   0.904     3
X CT S X 9 0.0 1.39467 3    X   sCT    sS     X     9    1.39467   1.205     3
X CV NB X 9 180.0 10.04160 2    X   sCV   sNB     X     9    10.04160  8.678     2
X CW NA X 9 180.0 6.27600 2    X   sCW   sNA     X     9    6.27600   5.424     2
X OH P X 9 0.0 1.04600 3    X   sOH    sP     X     9    1.04600   0.904     3
X OS P X 9 0.0 1.04600 3    X   sOS    sP     X     9    1.04600   0.904     3
X C1 N X 9 0.0 0.00000 0    X   sC1    sN     X     9    0.00000   0.000     0
X C C1 X 9 0.0 0.00000 0    X    sC   sC1     X     9    0.00000   0.000     0
X C C9 X 9 0.0 0.00000 0    X    sC   sC9     X     9    0.00000   0.000     0
X C CT X 9 0.0 0.00000 0    X    sC   sCT     X     9    0.00000   0.000     0
X CA CT X 9 0.0 0.00000 0    X   sCA   sCT     X     9    0.00000   0.000     0
X CC CT X 9 0.0 0.00000 0    X   sCC   sCT     X     9    0.00000   0.000     0
X CM CT X 9 0.0 0.00000 0    X   sCM   sCT     X     9    0.00000   0.000     0
X CT N X 9 0.0 0.00000 0    X   sCT    sN     X     9    0.00000   0.000     0
X CT N* X 9 0.0 0.00000 0    X   sCT   sN*     X     9    0.00000   0.000     0
X CT N2 X 9 0.0 0.00000 0    X   sCT   sN2     X     9    0.00000   0.000     0
X C* CT X 9 0.0 0.00000 0    X   sC*   sCT     X     9    0.00000   0.000     0
X C7 N X 9 0.0 0.00000 0    X   sC7    sN     X     9    0.00000   0.000     0
X C C7 X 9 0.0 0.00000 0    X    sC   sC7     X     9    0.00000   0.000     0
X C5 CT X 9 0.0 0.00000 0    X   sC5   sCT     X     9    0.00000   0.000     0
X C6 CT X 9 0.0 0.00000 0    X   sC6   sCT     X     9    0.00000   0.000     0
C C1 N O 4 180.0 4.60240 2   sC   sC1    sN    sO     4    4.60240   3.697     2
C C1 N OB 4 180.0 4.60240 2   sC   sC1    sN   sOB     4    4.60240   3.697     2
C C1 N H 4 180.0 4.60240 2   sC   sC1    sN    sH     4    4.60240   3.697     2
C C1 N HB 4 180.0 4.60240 2   sC   sC1    sN   sHB     4    4.60240   3.697     2
C9 O C OH 4 180.0 43.93200 2  sC9    sO    sC   sOH     4    43.93200  35.294    2
CB CK N* CT 4 180.0 4.18400 2  sCB   sCK   sN*   sCT     4    4.18400   3.361     2
C CM N* CT 4 180.0 4.18400 2   sC   sCM   sN*   sCT     4    4.18400   3.361     2
CT O C OH 4 180.0 43.93200 2  sCT    sO    sC   sOH     4    43.93200  35.294    2
CT CV CC NA 4 180.0 4.60240 2  sCT   sCV   sCC   sNA     4    4.60240   3.697     2
CT CW CC NB 4 180.0 4.60240 2  sCT   sCW   sCC   sNB     4    4.60240   3.697     2
CT CC CW NB 4 180.0 4.60240 2  sCT   sCC   sCW   sNB     4    4.60240   3.697     2
CT CW CC NA 4 180.0 4.60240 2  sCT   sCW   sCC   sNA     4    4.60240   3.697     2
CB CT C* CW 4 180.0 4.60240 2  sCB   sCT   sC*   sCW     4    4.60240   3.697     2
CA CA CA CT 4 180.0 4.60240 2  sCA   sCA   sCA   sCT     4    4.60240   3.697     2
C CM CM CT 4 180.0 4.60240 2   sC   sCM   sCM   sCT     4    4.60240   3.697     2
CM N2 CA NC 4 180.0 4.60240 2  sCM   sN2   sCA   sNC     4    4.60240   3.697     2
CB N2 CA NC 4 180.0 4.60240 2  sCB   sN2   sCA   sNC     4    4.60240   3.697     2
N2 NA CA NC 4 180.0 4.60240 2  sN2   sNA   sCA   sNC     4    4.60240   3.697     2
CA CA C OH 4 180.0 4.60240 2  sCA   sCA    sC   sOH     4    4.60240   3.697     2
CA CA CA OH 4 180.0 4.60240 2  sCA   sCA   sCA   sOH     4    4.60240   3.697     2
H5 O C OH 4 180.0 4.60240 2  sH5    sO    sC   sOH     4    4.60240   3.697     2
H5 O C OS 4 180.0 4.60240 2  sH5    sO    sC   sOS     4    4.60240   3.697     2
CM CT CM HA 4 180.0 4.60240 2  sCM   sCT   sCM   sHA     4    4.60240   3.697     2
Br CA CA CA 4 180.0 4.60240 2  sBr   sCA   sCA   sCA     4    4.60240   3.697     2
CM H4 C O 4 180.0 4.60240 2  sCM   sH4    sC    sO     4    4.60240   3.697     2
C CT N H 4 180.0 4.60240 2   sC   sCT    sN    sH     4    4.60240   3.697     2
C CT N HB 4 180.0 4.60240 2   sC   sCT    sN   sHB     4    4.60240   3.697     2
C CT N O 4 180.0 4.60240 2   sC   sCT    sN    sO     4    4.60240   3.697     2
C C7 N O 4 180.0 4.60240 2   sC   sC7    sN    sO     4    4.60240   3.697     2
C CT N OB 4 180.0 4.60240 2   sC   sCT    sN   sOB     4    4.60240   3.697     2
C C7 N OB 4 180.0 4.60240 2   sC   sC7    sN   sOB     4    4.60240   3.697     2
C C7 N H 4 180.0 4.60240 2   sC   sC7    sN    sH     4    4.60240   3.697     2
C C7 N HB 4 180.0 4.60240 2   sC   sC7    sN   sHB     4    4.60240   3.697     2
C5 CT N O 4 180.0 4.60240 2  sC5   sCT    sN    sO     4    4.60240   3.697     2
C5 CT N OB 4 180.0 4.60240 2  sC5   sCT    sN   sOB     4    4.60240   3.697     2
C5 CT N H 4 180.0 4.60240 2  sC5   sCT    sN    sH     4    4.60240   3.697     2
C5 CT N HB 4 180.0 4.60240 2  sC5   sCT    sN   sHB     4    4.60240   3.697     2
X CT N C1 4 180.0 4.18400 2    X   sCT    sN   sC1     4    4.18400   3.361     2
X CT N C7 4 180.0 4.18400 2    X   sCT    sN   sC7     4    4.18400   3.361     2
X O2 C6 O2 4 180.0 43.93200 2    X   sO2   sC6   sO2     4    43.93200  35.294    2
X O2 C O2 4 180.0 43.93200 2    X   sO2    sC   sO2     4    43.93200  35.294    2
X N2 CA N2 4 180.0 43.93200 2    X   sN2   sCA   sN2     4    43.93200  35.294    2
X CT N CT 4 180.0 4.18400 2    X   sCT    sN   sCT     4    4.18400   3.361     2
X X C O 4 180.0 43.93200 2    X     X    sC    sO     4    43.93200  35.294    2
X X C OB 4 180.0 43.93200 2    X     X    sC   sOB     4    43.93200  35.294    2
X X N H 4 180.0 4.18400 2    X     X    sN    sH     4    4.18400   3.361     2
X X N2 H 4 180.0 4.18400 2    X     X   sN2    sH     4    4.18400   3.361     2
X X NA H 4 180.0 4.18400 2    X     X   sNA    sH     4    4.18400   3.361     2
X X CA HA 4 180.0 4.60240 2    X     X   sCA   sHA     4    4.60240   3.697     2
X X CW H4 4 180.0 4.60240 2    X     X   sCW   sH4     4    4.60240   3.697     2
X X CR H5 4 180.0 4.60240 2    X     X   sCR   sH5     4    4.60240   3.697     2
X X CV H4 4 180.0 4.60240 2    X     X   sCV   sH4     4    4.60240   3.697     2
X X CQ H5 4 180.0 4.60240 2    X     X   sCQ   sH5     4    4.60240   3.697     2
X X CK H5 4 180.0 4.60240 2    X     X   sCK   sH5     4    4.60240   3.697     2
X X CM H4 4 180.0 4.60240 2    X     X   sCM   sH4     4    4.60240   3.697     2
X X CM HA 4 180.0 4.60240 2    X     X   sCM   sHA     4    4.60240   3.697     2
X X CA H4 4 180.0 4.60240 2    X     X   sCA   sH4     4    4.60240   3.697     2
X X CA H5 4 180.0 4.60240 2    X     X   sCA   sH5     4    4.60240   3.697     2
X X C5 O 4 180.0 43.93200 2    X     X   sC5    sO     4    43.93200  35.294    2
C8 CT C N 9 0.0 0.83680 1  sC8   sCT    sC    sN     9    0.83680   0.672     1
C8 CT C N 9 0.0 0.83680 2  sC8   sCT    sC    sN     9    0.83680   0.672     2
C8 CT C N 9 0.0 1.67360 3  sC8   sCT    sC    sN     9    1.67360   1.345     3
C8 CT N C 9 0.0 8.36800 1  sC8   sCT    sN    sC     9    8.36800   6.723     1
C8 CT N C 9 0.0 8.36800 2  sC8   sCT    sN    sC     9    8.36800   6.723     2
C8 CT N C 9 0.0 1.67360 3  sC8   sCT    sN    sC     9    1.67360   1.345     3
C CT C8 O3 9 180.0 4.18400 1   sC   sCT   sC8   sO3     9    4.18400   3.361     1
C CT C8 OH 9 180.0 3.76560 1   sC   sCT   sC8   sOH     9    3.76560   3.025     1
C CT CT C4 9 0.0 2.39074 1   sC   sCT   sCT   sC4     9    2.39074   1.921     1
C CT CT C4 9 180.0 1.49913 2   sC   sCT   sCT   sC4     9    1.49913   1.204     2
C CT CT C4 9 0.0 0.56400 3   sC   sCT   sCT   sC4     9    0.56400   0.453     3
C CT CT C5 9 0.0 0.71421 1   sC   sCT   sCT   sC5     9    0.71421   0.574     1
C CT CT C5 9 180.0 2.49241 2   sC   sCT   sCT   sC5     9    2.49241   2.002     2
C CT CT C5 9 0.0 0.49580 3   sC   sCT   sCT   sC5     9    0.49580   0.398     3
C CT CT C5 9 180.0 1.74556 4   sC   sCT   sCT   sC5     9    1.74556   1.402     4
C CT CT C5 9 0.0 0.43597 5   sC   sCT   sCT   sC5     9    0.43597   0.350     5
C CT CT C5 9 180.0 0.42142 6   sC   sCT   sCT   sC5     9    0.42142   0.339     6
C CT CT C* 9 0.0 1.21336 1   sC   sCT   sCT   sC*     9    1.21336   0.975     1
C CT CT C9 9 0.0 1.25520 1   sC   sCT   sCT   sC9     9    1.25520   1.008     1
C CT CT CA 9 0.0 2.17568 1   sC   sCT   sCT   sCA     9    2.17568   1.748     1
C CT CT CC 9 0.0 2.92880 1   sC   sCT   sCT   sCC     9    2.92880   2.353     1
C CT CT SH 9 180.0 0.66944 1   sC   sCT   sCT   sSH     9    0.66944   0.538     1
Cl CT CT Cl 9 180.0 1.88280 1  sCl   sCT   sCT   sCl     9    1.88280   1.513     1
CM CM C O 9 180.0 9.10020 2  sCM   sCM    sC    sO     9    9.10020   7.311     2
CM CM C O 9 0.0 1.25520 3  sCM   sCM    sC    sO     9    1.25520   1.008     3
C N C1 C 9 0.0 0.35267 1   sC    sN   sC1    sC     9    0.35267   0.283     1
C N C1 C 9 0.0 1.59541 2   sC    sN   sC1    sC     9    1.59541   1.282     2
C N C1 C 9 180.0 0.08381 3   sC    sN   sC1    sC     9    0.08381   0.067     3
C N C1 C 9 0.0 0.32396 4   sC    sN   sC1    sC     9    0.32396   0.260     4
C N C7 C 9 0.0 1.12968 2   sC    sN   sC7    sC     9    1.12968   0.908     2
C N C7 C 9 0.0 1.75728 3   sC    sN   sC7    sC     9    1.75728   1.412     3
C N CT C 9 180.0 0.14226 1   sC    sN   sCT    sC     9    0.14226   0.114     1
C N CT C 9 0.0 1.40164 2   sC    sN   sCT    sC     9    1.40164   1.126     2
C N CT C 9 0.0 2.27610 3   sC    sN   sCT    sC     9    2.27610   1.829     3
C N CT C 9 0.0 0.33472 4   sC    sN   sCT    sC     9    0.33472   0.269     4
CT C7 C N 9 0.0 0.83680 1  sCT   sC7    sC    sN     9    0.83680   0.672     1
CT C7 C N 9 0.0 0.83680 2  sCT   sC7    sC    sN     9    0.83680   0.672     2
CT C7 C N 9 0.0 1.67360 3  sCT   sC7    sC    sN     9    1.67360   1.345     3
CT C7 N C 9 0.0 8.36800 1  sCT   sC7    sN    sC     9    8.36800   6.723     1
CT C7 N C 9 0.0 8.36800 2  sCT   sC7    sN    sC     9    8.36800   6.723     2
CT C7 N C 9 0.0 1.67360 3  sCT   sC7    sN    sC     9    1.67360   1.345     3
CT C9 C O2 9 180.0 2.51040 2  sCT   sC9    sC   sO2     9    2.51040   2.017     2
CT C9 C O 9 180.0 2.51040 2  sCT   sC9    sC    sO     9    2.51040   2.017     2
CT C9 C OB 9 180.0 2.51040 2  sCT   sC9    sC   sOB     9    2.51040   2.017     2
CT CM CM CT 9 180.0 27.82360 2  sCT   sCM   sCM   sCT     9    27.82360  22.353    2
CT CM CM CT 9 180.0 7.94960 1  sCT   sCM   sCM   sCT     9    7.94960   6.387     1
CT CT C4 CT 9 0.0 0.62760 3  sCT   sCT   sC4   sCT     9    0.62760   0.504     3
CT CT C5 O 9 180.0 4.18400 1  sCT   sCT   sC5    sO     9    4.18400   3.361     1
CT CT C6 O2 9 180.0 0.77822 4  sCT   sCT   sC6   sO2     9    0.77822   0.625     4
CT CT C6 O2 9 180.0 1.48114 6  sCT   sCT   sC6   sO2     9    1.48114   1.190     6
CT CT C6 O2 9 180.0 3.65263 2  sCT   sCT   sC6   sO2     9    3.65263   2.934     2
CT CT C* CW 9 0.0 5.02080 1  sCT   sCT   sC*   sCW     9    5.02080   4.034     1
CT CT C N 9 0.0 0.83680 1  sCT   sCT    sC    sN     9    0.83680   0.672     1
CT CT C N 9 0.0 0.83680 2  sCT   sCT    sC    sN     9    0.83680   0.672     2
CT CT C N 9 0.0 1.67360 3  sCT   sCT    sC    sN     9    1.67360   1.345     3
CT CT CT C3 9 0.0 0.62760 3  sCT   sCT   sCT   sC3     9    0.62760   0.504     3
CT CT CT C7 9 0.0 0.75312 3  sCT   sCT   sCT   sC7     9    0.75312   0.605     3
CT CT CT C7 9 180.0 0.83680 1  sCT   sCT   sCT   sC7     9    0.83680   0.672     1
CT CT CT C7 9 180.0 1.04600 2  sCT   sCT   sCT   sC7     9    1.04600   0.840     2
CT CT CT CT 9 0.0 0.62760 3  sCT   sCT   sCT   sCT     9    0.62760   0.504     3
CT CT N C 9 0.0 1.67360 3  sCT   sCT    sN    sC     9    1.67360   1.345     3
CT CT N C 9 0.0 8.36800 1  sCT   sCT    sN    sC     9    8.36800   6.723     1
CT CT N C 9 0.0 8.36800 2  sCT   sCT    sN    sC     9    8.36800   6.723     2
CT CT OS C 9 0.0 1.60247 3  sCT   sCT   sOS    sC     9    1.60247   1.287     3
CT CT OS C 9 180.0 3.34720 1  sCT   sCT   sOS    sC     9    3.34720   2.689     1
CT CT OS CT 9 0.0 1.60247 3  sCT   sCT   sOS   sCT     9    1.60247   1.287     3
CT CT OS CT 9 180.0 0.41840 2  sCT   sCT   sOS   sCT     9    0.41840   0.336     2
CT CT SH HS 9 0.0 0.83680 3  sCT   sCT   sSH   sHS     9    0.83680   0.672     3
CT CT SH HS 9 0.0 2.09200 2  sCT   sCT   sSH   sHS     9    2.09200   1.681     2
CT OS CT N* 9 0.0 1.60247 3  sCT   sOS   sCT   sN*     9    1.60247   1.287     3
CT OS CT N* 9 0.0 2.71960 2  sCT   sOS   sCT   sN*     9    2.71960   2.185     2
CT OS CT OS 9 0.0 0.41840 3  sCT   sOS   sCT   sOS     9    0.41840   0.336     3
CT OS CT OS 9 180.0 3.55640 2  sCT   sOS   sCT   sOS     9    3.55640   2.857     2
CT OS CT OS 9 180.0 5.64840 1  sCT   sOS   sCT   sOS     9    5.64840   4.538     1
CT S S CT 9 0.0 14.64400 2  sCT    sS    sS   sCT     9    14.64400  11.765    2
CT S S CT 9 0.0 2.51040 3  sCT    sS    sS   sCT     9    2.51040   2.017     3
F CT CT F 9 180.0 5.02080 1   sF   sCT   sCT    sF     9    5.02080   4.034     1
H1 C1 C O 9 0.0 3.34720 1  sH1   sC1    sC    sO     9    3.34720   2.689     1
H1 C1 C O 9 180.0 0.33472 3  sH1   sC1    sC    sO     9    0.33472   0.269     3
H1 C7 C O 9 0.0 3.34720 1  sH1   sC7    sC    sO     9    3.34720   2.689     1
H1 C7 C O 9 180.0 0.33472 3  sH1   sC7    sC    sO     9    0.33472   0.269     3
H1 CT C O 9 0.0 3.34720 1  sH1   sCT    sC    sO     9    3.34720   2.689     1
H1 CT C O 9 180.0 0.33472 3  sH1   sCT    sC    sO     9    0.33472   0.269     3
H1 C1 C OB 9 0.0 3.34720 1  sH1   sC1    sC   sOB     9    3.34720   2.689     1
H1 C1 C OB 9 180.0 0.33472 3  sH1   sC1    sC   sOB     9    0.33472   0.269     3
H1 C7 C OB 9 0.0 3.34720 1  sH1   sC7    sC   sOB     9    3.34720   2.689     1
H1 C7 C OB 9 180.0 0.33472 3  sH1   sC7    sC   sOB     9    0.33472   0.269     3
H1 CT C OB 9 0.0 3.34720 1  sH1   sCT    sC   sOB     9    3.34720   2.689     1
H1 CT C OB 9 180.0 0.33472 3  sH1   sCT    sC   sOB     9    0.33472   0.269     3
H1 CT CT Br 9 0.0 2.30120 1  sH1   sCT   sCT   sBr     9    2.30120   1.849     1
H1 CT CT Cl 9 0.0 1.04600 1  sH1   sCT   sCT   sCl     9    1.04600   0.840     1
H1 CT CT F 9 0.0 0.79496 1  sH1   sCT   sCT    sF     9    0.79496   0.639     1
H1 CT CT OH 9 0.0 1.04600 1  sH1   sCT   sCT   sOH     9    1.04600   0.840     1
H1 CT CT OS 9 0.0 1.04600 1  sH1   sCT   sCT   sOS     9    1.04600   0.840     1
HC C3 CT CT 9 0.0 0.66944 3  sHC   sC3   sCT   sCT     9    0.66944   0.538     3
HC C4 CT CT 9 0.0 0.66944 3  sHC   sC4   sCT   sCT     9    0.66944   0.538     3
HC C4 CT HC 9 0.0 0.62760 3  sHC   sC4   sCT   sHC     9    0.62760   0.504     3
HC CT C3 HC 9 0.0 0.62760 3  sHC   sCT   sC3   sHC     9    0.62760   0.504     3
HC CT C4 CT 9 0.0 0.66944 3  sHC   sCT   sC4   sCT     9    0.66944   0.538     3
HC CT C5 O 9 0.0 3.34720 1  sHC   sCT   sC5    sO     9    3.34720   2.689     1
HC CT C5 O 9 180.0 0.33472 3  sHC   sCT   sC5    sO     9    0.33472   0.269     3
HC CT CM CM 9 0.0 4.81160 1  sHC   sCT   sCM   sCM     9    4.81160   3.866     1
HC CT CM CM 9 180.0 1.58992 3  sHC   sCT   sCM   sCM     9    1.58992   1.277     3
HC CT C O 9 0.0 3.34720 1  sHC   sCT    sC    sO     9    3.34720   2.689     1
HC CT C O 9 180.0 0.33472 3  sHC   sCT    sC    sO     9    0.33472   0.269     3
HC CT C OB 9 0.0 3.34720 1  sHC   sCT    sC   sOB     9    3.34720   2.689     1
HC CT C OB 9 180.0 0.33472 3  sHC   sCT    sC   sOB     9    0.33472   0.269     3
HC CT CT Br 9 0.0 2.30120 1  sHC   sCT   sCT   sBr     9    2.30120   1.849     1
HC CT CT C3 9 0.0 0.66944 3  sHC   sCT   sCT   sC3     9    0.66944   0.538     3
HC CT CT C4 9 0.0 0.66944 3  sHC   sCT   sCT   sC4     9    0.66944   0.538     3
HC CT CT C7 9 0.0 0.66944 3  sHC   sCT   sCT   sC7     9    0.66944   0.538     3
HC CT CT Cl 9 0.0 1.04600 1  sHC   sCT   sCT   sCl     9    1.04600   0.840     1
HC CT CT CT 9 0.0 0.66944 3  sHC   sCT   sCT   sCT     9    0.66944   0.538     3
HC CT CT F 9 0.0 0.79496 1  sHC   sCT   sCT    sF     9    0.79496   0.639     1
HC CT CT HC 9 0.0 0.62760 3  sHC   sCT   sCT   sHC     9    0.62760   0.504     3
HC CT CT OH 9 0.0 1.04600 1  sHC   sCT   sCT   sOH     9    1.04600   0.840     1
HC CT CT OS 9 0.0 1.04600 1  sHC   sCT   sCT   sOS     9    1.04600   0.840     1
H N C5 O 9 0.0 8.36800 1   sH    sN   sC5    sO     9    8.36800   6.723     1
H N C5 O 9 180.0 10.46000 2   sH    sN   sC5    sO     9    10.46000  8.403     2
H N C O 9 0.0 8.36800 1   sH    sN    sC    sO     9    8.36800   6.723     1
H N C O 9 180.0 10.46000 2   sH    sN    sC    sO     9    10.46000  8.403     2
HB N C OB 9 0.0 8.36800 1  sHB    sN    sC   sOB     9    8.36800   6.723     1
HB N C OB 9 180.0 10.46000 2  sHB    sN    sC   sOB     9    10.46000  8.403     2
HO O3 C8 CT 9 0.0 0.35982 1  sHO   sO3   sC8   sCT     9    0.35982   0.289     1
HO O3 C8 CT 9 0.0 0.41840 3  sHO   sO3   sC8   sCT     9    0.41840   0.336     3
HO O3 C8 CT 9 180.0 0.68199 2  sHO   sO3   sC8   sCT     9    0.68199   0.548     2
HO O3 C8 H1 9 0.0 0.41840 3  sHO   sO3   sC8   sH1     9    0.41840   0.336     3
HO OH C8 CT 9 0.0 0.25104 2  sHO   sOH   sC8   sCT     9    0.25104   0.202     2
HO OH C8 CT 9 0.0 0.83680 3  sHO   sOH   sC8   sCT     9    0.83680   0.672     3
HO OH C8 CT 9 0.0 3.13800 1  sHO   sOH   sC8   sCT     9    3.13800   2.521     1
HO OH C O 9 0.0 7.94960 1  sHO   sOH    sC    sO     9    7.94960   6.387     1
HO OH C O 9 180.0 9.62320 2  sHO   sOH    sC    sO     9    9.62320   7.731     2
HO OH CT CT 9 0.0 0.66944 3  sHO   sOH   sCT   sCT     9    0.66944   0.538     3
HO OH CT CT 9 0.0 1.04600 1  sHO   sOH   sCT   sCT     9    1.04600   0.840     1
N3 CT CT C3 9 0.0 0.81630 1  sN3   sCT   sCT   sC3     9    0.81630   0.656     1
N3 CT CT C3 9 180.0 3.53925 2  sN3   sCT   sCT   sC3     9    3.53925   2.843     2
N3 CT CT C6 9 180.0 11.02568 1  sN3   sCT   sCT   sC6     9    11.02568  8.858     1
N3 CT CT C6 9 180.0 4.98022 2  sN3   sCT   sCT   sC6     9    4.98022   4.001     2
N3 CT CT C6 9 180.0 0.02845 3  sN3   sCT   sCT   sC6     9    0.02845   0.023     3
N3 CT CT C6 9 0.0 1.76858 4  sN3   sCT   sCT   sC6     9    1.76858   1.421     4
N3 CT CT C6 9 0.0 0.96943 5  sN3   sCT   sCT   sC6     9    0.96943   0.779     5
N3 CT CT C6 9 180.0 0.89009 6  sN3   sCT   sCT   sC6     9    0.89009   0.715     6
N C1 C N 9 180.0 2.69445 1   sN   sC1    sC    sN     9    2.69445   2.165     1
N C1 C N 9 180.0 6.68666 2   sN   sC1    sC    sN     9    6.68666   5.372     2
N C1 C N 9 180.0 1.67111 3   sN   sC1    sC    sN     9    1.67111   1.343     3
N C1 C N 9 0.0 0.31419 4   sN   sC1    sC    sN     9    0.31419   0.252     4
N C5 CT CT 9 180.0 4.37772 1   sN   sC5   sCT   sCT     9    4.37772   3.517     1
N C5 CT CT 9 180.0 0.75730 2   sN   sC5   sCT   sCT     9    0.75730   0.608     2
N C5 CT CT 9 180.0 0.14811 3   sN   sC5   sCT   sCT     9    0.14811   0.119     3
N C5 CT CT 9 0.0 0.41966 4   sN   sC5   sCT   sCT     9    0.41966   0.337     4
N C5 CT CT 9 0.0 0.54308 5   sN   sC5   sCT   sCT     9    0.54308   0.436     5
N C5 CT CT 9 180.0 0.44373 6   sN   sC5   sCT   sCT     9    0.44373   0.356     6
N C7 C N 9 180.0 1.88280 1   sN   sC7    sC    sN     9    1.88280   1.513     1
N C7 C N 9 180.0 6.61072 2   sN   sC7    sC    sN     9    6.61072   5.311     2
N C7 C N 9 180.0 2.30120 3   sN   sC7    sC    sN     9    2.30120   1.849     3
N CT C8 CT 9 0.0 0.25104 1   sN   sCT   sC8   sCT     9    0.25104   0.202     1
N CT C8 CT 9 180.0 2.09200 2   sN   sCT   sC8   sCT     9    2.09200   1.681     2
N CT C8 CT 9 0.0 0.62760 3   sN   sCT   sC8   sCT     9    0.62760   0.504     3
N CT C8 CT 9 180.0 0.27196 4   sN   sCT   sC8   sCT     9    0.27196   0.218     4
N CT C8 O3 9 180.0 0.33472 1   sN   sCT   sC8   sO3     9    0.33472   0.269     1
N CT C8 OH 9 180.0 1.04600 1   sN   sCT   sC8   sOH     9    1.04600   0.840     1
N CT C N 9 360.0 0.82425 1   sN   sCT    sC    sN     9    0.82425   0.662     1
N CT C N 9 180.0 6.04588 2   sN   sCT    sC    sN     9    6.04588   4.857     2
N CT C N 9 180.0 2.00414 3   sN   sCT    sC    sN     9    2.00414   1.610     3
N CT C N 9 360.0 0.07991 4   sN   sCT    sC    sN     9    0.07991   0.064     4
N CT C N 9 360.0 0.01674 5   sN   sCT    sC    sN     9    0.01674   0.013     5
N CT CT C3 9 0.0 0.81630 1   sN   sCT   sCT   sC3     9    0.81630   0.656     1
N CT CT C3 9 180.0 3.53925 2   sN   sCT   sCT   sC3     9    3.53925   2.843     2
N CT CT C5 9 180.0 2.63592 1   sN   sCT   sCT   sC5     9    2.63592   2.118     1
N CT CT C6 9 180.0 12.05410 1   sN   sCT   sCT   sC6     9    12.05410  9.684     1
N CT CT C6 9 180.0 5.06682 2   sN   sCT   sCT   sC6     9    5.06682   4.071     2
N CT CT C6 9 0.0 0.25941 3   sN   sCT   sCT   sC6     9    0.25941   0.208     3
N CT CT C6 9 0.0 1.02508 4   sN   sCT   sCT   sC6     9    1.02508   0.824     4
N CT CT C6 9 0.0 0.54810 5   sN   sCT   sCT   sC6     9    0.54810   0.440     5
N CT CT C6 9 180.0 0.59413 6   sN   sCT   sCT   sC6     9    0.59413   0.477     6
N CT CT C9 9 0.0 0.41840 1   sN   sCT   sCT   sC9     9    0.41840   0.336     1
N CT CT CC 9 180.0 1.67360 1   sN   sCT   sCT   sCC     9    1.67360   1.345     1
N CT CT SH 9 180.0 2.30120 1   sN   sCT   sCT   sSH     9    2.30120   1.849     1
N CT CT SH 9 180.0 2.63592 2   sN   sCT   sCT   sSH     9    2.63592   2.118     2
N CT CT SH 9 180.0 0.25104 3   sN   sCT   sCT   sSH     9    0.25104   0.202     3
N CT CT SH 9 180.0 0.12552 4   sN   sCT   sCT   sSH     9    0.12552   0.101     4
O C OS CT 9 180.0 5.85760 1   sO    sC   sOS   sCT     9    5.85760   4.706     1
O C OS CT 9 180.0 11.29680 2   sO    sC   sOS   sCT     9    11.29680  9.076     2
OH CT CT OH 9 0.0 0.60250 3  sOH   sCT   sCT   sOH     9    0.60250   0.484     3
OH CT CT OH 9 0.0 4.91620 2  sOH   sCT   sCT   sOH     9    4.91620   3.950     2
OH P OS CT 9 0.0 1.04600 3  sOH    sP   sOS   sCT     9    1.04600   0.840     3
OH P OS CT 9 0.0 5.02080 2  sOH    sP   sOS   sCT     9    5.02080   4.034     2
OS CT CT OH 9 0.0 0.60250 3  sOS   sCT   sCT   sOH     9    0.60250   0.484     3
OS CT CT OH 9 0.0 4.91620 2  sOS   sCT   sCT   sOH     9    4.91620   3.950     2
OS CT CT OS 9 0.0 4.91620 2  sOS   sCT   sCT   sOS     9    4.91620   3.950     2
OS CT CT OS 9 0.0 0.60250 3  sOS   sCT   sCT   sOS     9    0.60250   0.484     3
OS CT N* CK 9 0.0 10.46000 1  sOS   sCT   sN*   sCK     9    10.46000  8.403     1
OS CT N* CM 9 0.0 10.46000 1  sOS   sCT   sN*   sCM     9    10.46000  8.403     1
OS P OS CT 9 0.0 5.02080 2  sOS    sP   sOS   sCT     9    5.02080   4.034     2
OS P OS CT 9 0.0 1.04600 3  sOS    sP   sOS   sCT     9    1.04600   0.840     3
N CT CT CA 9 0.0 0.00000 0   sN   sCT   sCT   sCA     9    0.00000   0.000     0
N CT CT C* 9 0.0 0.00000 0   sN   sCT   sCT   sC*     9    0.00000   0.000     0
CT CT C9 S 9 0.0 0.00000 0  sCT   sCT   sC9    sS     9    0.00000   0.000     0
CT CT C9 CT 9 0.0 0.00000 0  sCT   sCT   sC9   sCT     9    0.00000   0.000     0
X C1 N3 X 9 0.0 0.65084 3    X   sC1   sN3     X     9    0.65084   0.523     3
X C5 N X 9 180.0 10.46000 2    X   sC5    sN     X     9    10.46000  8.403     2
X C7 CT X 9 0.0 0.65084 3    X   sC7   sCT     X     9    0.65084   0.523     3
X C7 N3 X 9 0.0 0.65084 3    X   sC7   sN3     X     9    0.65084   0.523     3
X C8 O3 X 9 0.0 0.69873 3    X   sC8   sO3     X     9    0.69873   0.561     3
X C8 OH X 9 0.0 0.69873 3    X   sC8   sOH     X     9    0.69873   0.561     3
X C9 S X 9 0.0 1.39327 3    X   sC9    sS     X     9    1.39327   1.119     3
X CA CA X 9 180.0 15.16700 2    X   sCA   sCA     X     9    15.16700  12.185    2
X CA CB X 9 180.0 14.64400 2    X   sCA   sCB     X     9    14.64400  11.765    2
X CA CM X 9 180.0 10.66920 2    X   sCA   sCM     X     9    10.66920  8.571     2
X CA CN X 9 180.0 15.16700 2    X   sCA   sCN     X     9    15.16700  12.185    2
X CA N2 X 9 180.0 10.04160 2    X   sCA   sN2     X     9    10.04160  8.067     2
X CA NA X 9 180.0 6.27600 2    X   sCA   sNA     X     9    6.27600   5.042     2
X CA NC X 9 180.0 20.08320 2    X   sCA   sNC     X     9    20.08320  16.134    2
X CA OH X 9 180.0 3.76560 2    X   sCA   sOH     X     9    3.76560   3.025     2
X CB CB X 9 180.0 22.80280 2    X   sCB   sCB     X     9    22.80280  18.319    2
X CB CN X 9 180.0 12.55200 2    X   sCB   sCN     X     9    12.55200  10.084    2
X CB NB X 9 180.0 10.66920 2    X   sCB   sNB     X     9    10.66920  8.571     2
X CB NC X 9 180.0 17.36360 2    X   sCB   sNC     X     9    17.36360  13.950    2
X CB N* X 9 180.0 6.90360 2    X   sCB   sN*     X     9    6.90360   5.546     2
X C CA X 9 180.0 15.16700 2    X    sC   sCA     X     9    15.16700  12.185    2
X C CB X 9 180.0 12.55200 2    X    sC   sCB     X     9    12.55200  10.084    2
X C* CB X 9 180.0 7.00820 2    X   sC*   sCB     X     9    7.00820   5.630     2
X CC CV X 9 180.0 21.54760 2    X   sCC   sCV     X     9    21.54760  17.311    2
X CC CW X 9 180.0 22.48900 2    X   sCC   sCW     X     9    22.48900  18.067    2
X C CM X 9 180.0 9.10020 2    X    sC   sCM     X     9    9.10020   7.311     2
X CC NA X 9 180.0 5.85760 2    X   sCC   sNA     X     9    5.85760   4.706     2
X CC NB X 9 180.0 10.04160 2    X   sCC   sNB     X     9    10.04160  8.067     2
X C* CW X 9 180.0 27.30060 2    X   sC*   sCW     X     9    27.30060  21.933    2
X C C X 9 180.0 15.16700 2    X    sC    sC     X     9    15.16700  12.185    2
X CK NB X 9 180.0 41.84000 2    X   sCK   sNB     X     9    41.84000  33.613    2
X CK N* X 9 180.0 7.11280 2    X   sCK   sN*     X     9    7.11280   5.714     2
X CM CM X 9 180.0 27.82360 2    X   sCM   sCM     X     9    27.82360  22.353    2
X CM N* X 9 180.0 7.74040 2    X   sCM   sN*     X     9    7.74040   6.218     2
X CM OS X 9 180.0 4.39320 2    X   sCM   sOS     X     9    4.39320   3.529     2
X C NA X 9 180.0 5.64840 2    X    sC   sNA     X     9    5.64840   4.538     2
X C NC X 9 180.0 16.73600 2    X    sC   sNC     X     9    16.73600  13.445    2
X CN NA X 9 180.0 6.38060 2    X   sCN   sNA     X     9    6.38060   5.126     2
X C N X 9 180.0 10.46000 2    X    sC    sN     X     9    10.46000  8.403     2
X C N* X 9 180.0 6.06680 2    X    sC   sN*     X     9    6.06680   4.874     2
X C OH X 9 180.0 9.62320 2    X    sC   sOH     X     9    9.62320   7.731     2
X C OS X 9 180.0 11.29680 2    X    sC   sOS     X     9    11.29680  9.076     2
X C O X 9 180.0 11.71520 2    X    sC    sO     X     9    11.71520  9.412     2
X C OB X 9 180.0 11.71520 2    X    sC   sOB     X     9    11.71520  9.412     2
X CQ NC X 9 180.0 28.45120 2    X   sCQ   sNC     X     9    28.45120  22.857    2
X CR NA X 9 180.0 9.72780 2    X   sCR   sNA     X     9    9.72780   7.815     2
X CR NB X 9 180.0 20.92000 2    X   sCR   sNB     X     9    20.92000  16.807    2
X CT C8 X 9 0.0 0.64852 3    X   sCT   sC8     X     9    0.64852   0.521     3
X CT C9 X 9 0.0 0.64852 3    X   sCT   sC9     X     9    0.64852   0.521     3
X CT CT X 9 0.0 0.65084 3    X   sCT   sCT     X     9    0.65084   0.523     3
X CT N3 X 9 0.0 0.65084 3    X   sCT   sN3     X     9    0.65084   0.523     3
X CT OH X 9 0.0 0.69733 3    X   sCT   sOH     X     9    0.69733   0.560     3
X CT OS X 9 0.0 1.60387 3    X   sCT   sOS     X     9    1.60387   1.289     3
X CT SH X 9 0.0 1.04600 3    X   sCT   sSH     X     9    1.04600   0.840     3
X CT S X 9 0.0 1.39467 3    X   sCT    sS     X     9    1.39467   1.120     3
X CV NB X 9 180.0 10.04160 2    X   sCV   sNB     X     9    10.04160  8.067     2
X CW NA X 9 180.0 6.27600 2    X   sCW   sNA     X     9    6.27600   5.042     2
X OH P X 9 0.0 1.04600 3    X   sOH    sP     X     9    1.04600   0.840     3
X OS P X 9 0.0 1.04600 3    X   sOS    sP     X     9    1.04600   0.840     3
X C1 N X 9 0.0 0.00000 0    X   sC1    sN     X     9    0.00000   0.000     0
X C C1 X 9 0.0 0.00000 0    X    sC   sC1     X     9    0.00000   0.000     0
X C C9 X 9 0.0 0.00000 0    X    sC   sC9     X     9    0.00000   0.000     0
X C CT X 9 0.0 0.00000 0    X    sC   sCT     X     9    0.00000   0.000     0
X CA CT X 9 0.0 0.00000 0    X   sCA   sCT     X     9    0.00000   0.000     0
X CC CT X 9 0.0 0.00000 0    X   sCC   sCT     X     9    0.00000   0.000     0
X CM CT X 9 0.0 0.00000 0    X   sCM   sCT     X     9    0.00000   0.000     0
X CT N X 9 0.0 0.00000 0    X   sCT    sN     X     9    0.00000   0.000     0
X CT N* X 9 0.0 0.00000 0    X   sCT   sN*     X     9    0.00000   0.000     0
X CT N2 X 9 0.0 0.00000 0    X   sCT   sN2     X     9    0.00000   0.000     0
X C* CT X 9 0.0 0.00000 0    X   sC*   sCT     X     9    0.00000   0.000     0
X C7 N X 9 0.0 0.00000 0    X   sC7    sN     X     9    0.00000   0.000     0
X C C7 X 9 0.0 0.00000 0    X    sC   sC7     X     9    0.00000   0.000     0
X C5 CT X 9 0.0 0.00000 0    X   sC5   sCT     X     9    0.00000   0.000     0
X C6 CT X 9 0.0 0.00000 0    X   sC6   sCT     X     9    0.00000   0.000     0
C C1 N O 4 180.0 4.60240 2   sC   sC1    sN    sO     4    4.60240   3.437     2
C C1 N OB 4 180.0 4.60240 2   sC   sC1    sN   sOB     4    4.60240   3.437     2
C C1 N H 4 180.0 4.60240 2   sC   sC1    sN    sH     4    4.60240   3.437     2
C C1 N HB 4 180.0 4.60240 2   sC   sC1    sN   sHB     4    4.60240   3.437     2
C9 O C OH 4 180.0 43.93200 2  sC9    sO    sC   sOH     4    43.93200  32.810    2
CB CK N* CT 4 180.0 4.18400 2  sCB   sCK   sN*   sCT     4    4.18400   3.125     2
C CM N* CT 4 180.0 4.18400 2   sC   sCM   sN*   sCT     4    4.18400   3.125     2
CT O C OH 4 180.0 43.93200 2  sCT    sO    sC   sOH     4    43.93200  32.810    2
CT CV CC NA 4 180.0 4.60240 2  sCT   sCV   sCC   sNA     4    4.60240   3.437     2
CT CW CC NB 4 180.0 4.60240 2  sCT   sCW   sCC   sNB     4    4.60240   3.437     2
CT CC CW NB 4 180.0 4.60240 2  sCT   sCC   sCW   sNB     4    4.60240   3.437     2
CT CW CC NA 4 180.0 4.60240 2  sCT   sCW   sCC   sNA     4    4.60240   3.437     2
CB CT C* CW 4 180.0 4.60240 2  sCB   sCT   sC*   sCW     4    4.60240   3.437     2
CA CA CA CT 4 180.0 4.60240 2  sCA   sCA   sCA   sCT     4    4.60240   3.437     2
C CM CM CT 4 180.0 4.60240 2   sC   sCM   sCM   sCT     4    4.60240   3.437     2
CM N2 CA NC 4 180.0 4.60240 2  sCM   sN2   sCA   sNC     4    4.60240   3.437     2
CB N2 CA NC 4 180.0 4.60240 2  sCB   sN2   sCA   sNC     4    4.60240   3.437     2
N2 NA CA NC 4 180.0 4.60240 2  sN2   sNA   sCA   sNC     4    4.60240   3.437     2
CA CA C OH 4 180.0 4.60240 2  sCA   sCA    sC   sOH     4    4.60240   3.437     2
CA CA CA OH 4 180.0 4.60240 2  sCA   sCA   sCA   sOH     4    4.60240   3.437     2
H5 O C OH 4 180.0 4.60240 2  sH5    sO    sC   sOH     4    4.60240   3.437     2
H5 O C OS 4 180.0 4.60240 2  sH5    sO    sC   sOS     4    4.60240   3.437     2
CM CT CM HA 4 180.0 4.60240 2  sCM   sCT   sCM   sHA     4    4.60240   3.437     2
Br CA CA CA 4 180.0 4.60240 2  sBr   sCA   sCA   sCA     4    4.60240   3.437     2
CM H4 C O 4 180.0 4.60240 2  sCM   sH4    sC    sO     4    4.60240   3.437     2
C CT N H 4 180.0 4.60240 2   sC   sCT    sN    sH     4    4.60240   3.437     2
C CT N HB 4 180.0 4.60240 2   sC   sCT    sN   sHB     4    4.60240   3.437     2
C CT N O 4 180.0 4.60240 2   sC   sCT    sN    sO     4    4.60240   3.437     2
C C7 N O 4 180.0 4.60240 2   sC   sC7    sN    sO     4    4.60240   3.437     2
C CT N OB 4 180.0 4.60240 2   sC   sCT    sN   sOB     4    4.60240   3.437     2
C C7 N OB 4 180.0 4.60240 2   sC   sC7    sN   sOB     4    4.60240   3.437     2
C C7 N H 4 180.0 4.60240 2   sC   sC7    sN    sH     4    4.60240   3.437     2
C C7 N HB 4 180.0 4.60240 2   sC   sC7    sN   sHB     4    4.60240   3.437     2
C5 CT N O 4 180.0 4.60240 2  sC5   sCT    sN    sO     4    4.60240   3.437     2
C5 CT N OB 4 180.0 4.60240 2  sC5   sCT    sN   sOB     4    4.60240   3.437     2
C5 CT N H 4 180.0 4.60240 2  sC5   sCT    sN    sH     4    4.60240   3.437     2
C5 CT N HB 4 180.0 4.60240 2  sC5   sCT    sN   sHB     4    4.60240   3.437     2
X CT N C1 4 180.0 4.18400 2    X   sCT    sN   sC1     4    4.18400   3.125     2
X CT N C7 4 180.0 4.18400 2    X   sCT    sN   sC7     4    4.18400   3.125     2
X O2 C6 O2 4 180.0 43.93200 2    X   sO2   sC6   sO2     4    43.93200  32.810    2
X O2 C O2 4 180.0 43.93200 2    X   sO2    sC   sO2     4    43.93200  32.810    2
X N2 CA N2 4 180.0 43.93200 2    X   sN2   sCA   sN2     4    43.93200  32.810    2
X CT N CT 4 180.0 4.18400 2    X   sCT    sN   sCT     4    4.18400   3.125     2
X X C O 4 180.0 43.93200 2    X     X    sC    sO     4    43.93200  32.810    2
X X C OB 4 180.0 43.93200 2    X     X    sC   sOB     4    43.93200  32.810    2
X X N H 4 180.0 4.18400 2    X     X    sN    sH     4    4.18400   3.125     2
X X N2 H 4 180.0 4.18400 2    X     X   sN2    sH     4    4.18400   3.125     2
X X NA H 4 180.0 4.18400 2    X     X   sNA    sH     4    4.18400   3.125     2
X X CA HA 4 180.0 4.60240 2    X     X   sCA   sHA     4    4.60240   3.437     2
X X CW H4 4 180.0 4.60240 2    X     X   sCW   sH4     4    4.60240   3.437     2
X X CR H5 4 180.0 4.60240 2    X     X   sCR   sH5     4    4.60240   3.437     2
X X CV H4 4 180.0 4.60240 2    X     X   sCV   sH4     4    4.60240   3.437     2
X X CQ H5 4 180.0 4.60240 2    X     X   sCQ   sH5     4    4.60240   3.437     2
X X CK H5 4 180.0 4.60240 2    X     X   sCK   sH5     4    4.60240   3.437     2
X X CM H4 4 180.0 4.60240 2    X     X   sCM   sH4     4    4.60240   3.437     2
X X CM HA 4 180.0 4.60240 2    X     X   sCM   sHA     4    4.60240   3.437     2
X X CA H4 4 180.0 4.60240 2    X     X   sCA   sH4     4    4.60240   3.437     2
X X CA H5 4 180.0 4.60240 2    X     X   sCA   sH5     4    4.60240   3.437     2
X X C5 O 4 180.0 43.93200 2    X     X   sC5    sO     4    43.93200  32.810    2
C8 CT C N 9 0.0 0.83680 1  sC8   sCT    sC    sN     9    0.83680   0.625     1
C8 CT C N 9 0.0 0.83680 2  sC8   sCT    sC    sN     9    0.83680   0.625     2
C8 CT C N 9 0.0 1.67360 3  sC8   sCT    sC    sN     9    1.67360   1.250     3
C8 CT N C 9 0.0 8.36800 1  sC8   sCT    sN    sC     9    8.36800   6.250     1
C8 CT N C 9 0.0 8.36800 2  sC8   sCT    sN    sC     9    8.36800   6.250     2
C8 CT N C 9 0.0 1.67360 3  sC8   sCT    sN    sC     9    1.67360   1.250     3
C CT C8 O3 9 180.0 4.18400 1   sC   sCT   sC8   sO3     9    4.18400   3.125     1
C CT C8 OH 9 180.0 3.76560 1   sC   sCT   sC8   sOH     9    3.76560   2.812     1
C CT CT C4 9 0.0 2.39074 1   sC   sCT   sCT   sC4     9    2.39074   1.786     1
C CT CT C4 9 180.0 1.49913 2   sC   sCT   sCT   sC4     9    1.49913   1.120     2
C CT CT C4 9 0.0 0.56400 3   sC   sCT   sCT   sC4     9    0.56400   0.421     3
C CT CT C5 9 0.0 0.71421 1   sC   sCT   sCT   sC5     9    0.71421   0.533     1
C CT CT C5 9 180.0 2.49241 2   sC   sCT   sCT   sC5     9    2.49241   1.861     2
C CT CT C5 9 0.0 0.49580 3   sC   sCT   sCT   sC5     9    0.49580   0.370     3
C CT CT C5 9 180.0 1.74556 4   sC   sCT   sCT   sC5     9    1.74556   1.304     4
C CT CT C5 9 0.0 0.43597 5   sC   sCT   sCT   sC5     9    0.43597   0.326     5
C CT CT C5 9 180.0 0.42142 6   sC   sCT   sCT   sC5     9    0.42142   0.315     6
C CT CT C* 9 0.0 1.21336 1   sC   sCT   sCT   sC*     9    1.21336   0.906     1
C CT CT C9 9 0.0 1.25520 1   sC   sCT   sCT   sC9     9    1.25520   0.937     1
C CT CT CA 9 0.0 2.17568 1   sC   sCT   sCT   sCA     9    2.17568   1.625     1
C CT CT CC 9 0.0 2.92880 1   sC   sCT   sCT   sCC     9    2.92880   2.187     1
C CT CT SH 9 180.0 0.66944 1   sC   sCT   sCT   sSH     9    0.66944   0.500     1
Cl CT CT Cl 9 180.0 1.88280 1  sCl   sCT   sCT   sCl     9    1.88280   1.406     1
CM CM C O 9 180.0 9.10020 2  sCM   sCM    sC    sO     9    9.10020   6.796     2
CM CM C O 9 0.0 1.25520 3  sCM   sCM    sC    sO     9    1.25520   0.937     3
C N C1 C 9 0.0 0.35267 1   sC    sN   sC1    sC     9    0.35267   0.263     1
C N C1 C 9 0.0 1.59541 2   sC    sN   sC1    sC     9    1.59541   1.192     2
C N C1 C 9 180.0 0.08381 3   sC    sN   sC1    sC     9    0.08381   0.063     3
C N C1 C 9 0.0 0.32396 4   sC    sN   sC1    sC     9    0.32396   0.242     4
C N C7 C 9 0.0 1.12968 2   sC    sN   sC7    sC     9    1.12968   0.844     2
C N C7 C 9 0.0 1.75728 3   sC    sN   sC7    sC     9    1.75728   1.312     3
C N CT C 9 180.0 0.14226 1   sC    sN   sCT    sC     9    0.14226   0.106     1
C N CT C 9 0.0 1.40164 2   sC    sN   sCT    sC     9    1.40164   1.047     2
C N CT C 9 0.0 2.27610 3   sC    sN   sCT    sC     9    2.27610   1.700     3
C N CT C 9 0.0 0.33472 4   sC    sN   sCT    sC     9    0.33472   0.250     4
CT C7 C N 9 0.0 0.83680 1  sCT   sC7    sC    sN     9    0.83680   0.625     1
CT C7 C N 9 0.0 0.83680 2  sCT   sC7    sC    sN     9    0.83680   0.625     2
CT C7 C N 9 0.0 1.67360 3  sCT   sC7    sC    sN     9    1.67360   1.250     3
CT C7 N C 9 0.0 8.36800 1  sCT   sC7    sN    sC     9    8.36800   6.250     1
CT C7 N C 9 0.0 8.36800 2  sCT   sC7    sN    sC     9    8.36800   6.250     2
CT C7 N C 9 0.0 1.67360 3  sCT   sC7    sN    sC     9    1.67360   1.250     3
CT C9 C O2 9 180.0 2.51040 2  sCT   sC9    sC   sO2     9    2.51040   1.875     2
CT C9 C O 9 180.0 2.51040 2  sCT   sC9    sC    sO     9    2.51040   1.875     2
CT C9 C OB 9 180.0 2.51040 2  sCT   sC9    sC   sOB     9    2.51040   1.875     2
CT CM CM CT 9 180.0 27.82360 2  sCT   sCM   sCM   sCT     9    27.82360  20.780    2
CT CM CM CT 9 180.0 7.94960 1  sCT   sCM   sCM   sCT     9    7.94960   5.937     1
CT CT C4 CT 9 0.0 0.62760 3  sCT   sCT   sC4   sCT     9    0.62760   0.469     3
CT CT C5 O 9 180.0 4.18400 1  sCT   sCT   sC5    sO     9    4.18400   3.125     1
CT CT C6 O2 9 180.0 0.77822 4  sCT   sCT   sC6   sO2     9    0.77822   0.581     4
CT CT C6 O2 9 180.0 1.48114 6  sCT   sCT   sC6   sO2     9    1.48114   1.106     6
CT CT C6 O2 9 180.0 3.65263 2  sCT   sCT   sC6   sO2     9    3.65263   2.728     2
CT CT C* CW 9 0.0 5.02080 1  sCT   sCT   sC*   sCW     9    5.02080   3.750     1
CT CT C N 9 0.0 0.83680 1  sCT   sCT    sC    sN     9    0.83680   0.625     1
CT CT C N 9 0.0 0.83680 2  sCT   sCT    sC    sN     9    0.83680   0.625     2
CT CT C N 9 0.0 1.67360 3  sCT   sCT    sC    sN     9    1.67360   1.250     3
CT CT CT C3 9 0.0 0.62760 3  sCT   sCT   sCT   sC3     9    0.62760   0.469     3
CT CT CT C7 9 0.0 0.75312 3  sCT   sCT   sCT   sC7     9    0.75312   0.562     3
CT CT CT C7 9 180.0 0.83680 1  sCT   sCT   sCT   sC7     9    0.83680   0.625     1
CT CT CT C7 9 180.0 1.04600 2  sCT   sCT   sCT   sC7     9    1.04600   0.781     2
CT CT CT CT 9 0.0 0.62760 3  sCT   sCT   sCT   sCT     9    0.62760   0.469     3
CT CT N C 9 0.0 1.67360 3  sCT   sCT    sN    sC     9    1.67360   1.250     3
CT CT N C 9 0.0 8.36800 1  sCT   sCT    sN    sC     9    8.36800   6.250     1
CT CT N C 9 0.0 8.36800 2  sCT   sCT    sN    sC     9    8.36800   6.250     2
CT CT OS C 9 0.0 1.60247 3  sCT   sCT   sOS    sC     9    1.60247   1.197     3
CT CT OS C 9 180.0 3.34720 1  sCT   sCT   sOS    sC     9    3.34720   2.500     1
CT CT OS CT 9 0.0 1.60247 3  sCT   sCT   sOS   sCT     9    1.60247   1.197     3
CT CT OS CT 9 180.0 0.41840 2  sCT   sCT   sOS   sCT     9    0.41840   0.312     2
CT CT SH HS 9 0.0 0.83680 3  sCT   sCT   sSH   sHS     9    0.83680   0.625     3
CT CT SH HS 9 0.0 2.09200 2  sCT   sCT   sSH   sHS     9    2.09200   1.562     2
CT OS CT N* 9 0.0 1.60247 3  sCT   sOS   sCT   sN*     9    1.60247   1.197     3
CT OS CT N* 9 0.0 2.71960 2  sCT   sOS   sCT   sN*     9    2.71960   2.031     2
CT OS CT OS 9 0.0 0.41840 3  sCT   sOS   sCT   sOS     9    0.41840   0.312     3
CT OS CT OS 9 180.0 3.55640 2  sCT   sOS   sCT   sOS     9    3.55640   2.656     2
CT OS CT OS 9 180.0 5.64840 1  sCT   sOS   sCT   sOS     9    5.64840   4.218     1
CT S S CT 9 0.0 14.64400 2  sCT    sS    sS   sCT     9    14.64400  10.937    2
CT S S CT 9 0.0 2.51040 3  sCT    sS    sS   sCT     9    2.51040   1.875     3
F CT CT F 9 180.0 5.02080 1   sF   sCT   sCT    sF     9    5.02080   3.750     1
H1 C1 C O 9 0.0 3.34720 1  sH1   sC1    sC    sO     9    3.34720   2.500     1
H1 C1 C O 9 180.0 0.33472 3  sH1   sC1    sC    sO     9    0.33472   0.250     3
H1 C7 C O 9 0.0 3.34720 1  sH1   sC7    sC    sO     9    3.34720   2.500     1
H1 C7 C O 9 180.0 0.33472 3  sH1   sC7    sC    sO     9    0.33472   0.250     3
H1 CT C O 9 0.0 3.34720 1  sH1   sCT    sC    sO     9    3.34720   2.500     1
H1 CT C O 9 180.0 0.33472 3  sH1   sCT    sC    sO     9    0.33472   0.250     3
H1 C1 C OB 9 0.0 3.34720 1  sH1   sC1    sC   sOB     9    3.34720   2.500     1
H1 C1 C OB 9 180.0 0.33472 3  sH1   sC1    sC   sOB     9    0.33472   0.250     3
H1 C7 C OB 9 0.0 3.34720 1  sH1   sC7    sC   sOB     9    3.34720   2.500     1
H1 C7 C OB 9 180.0 0.33472 3  sH1   sC7    sC   sOB     9    0.33472   0.250     3
H1 CT C OB 9 0.0 3.34720 1  sH1   sCT    sC   sOB     9    3.34720   2.500     1
H1 CT C OB 9 180.0 0.33472 3  sH1   sCT    sC   sOB     9    0.33472   0.250     3
H1 CT CT Br 9 0.0 2.30120 1  sH1   sCT   sCT   sBr     9    2.30120   1.719     1
H1 CT CT Cl 9 0.0 1.04600 1  sH1   sCT   sCT   sCl     9    1.04600   0.781     1
H1 CT CT F 9 0.0 0.79496 1  sH1   sCT   sCT    sF     9    0.79496   0.594     1
H1 CT CT OH 9 0.0 1.04600 1  sH1   sCT   sCT   sOH     9    1.04600   0.781     1
H1 CT CT OS 9 0.0 1.04600 1  sH1   sCT   sCT   sOS     9    1.04600   0.781     1
HC C3 CT CT 9 0.0 0.66944 3  sHC   sC3   sCT   sCT     9    0.66944   0.500     3
HC C4 CT CT 9 0.0 0.66944 3  sHC   sC4   sCT   sCT     9    0.66944   0.500     3
HC C4 CT HC 9 0.0 0.62760 3  sHC   sC4   sCT   sHC     9    0.62760   0.469     3
HC CT C3 HC 9 0.0 0.62760 3  sHC   sCT   sC3   sHC     9    0.62760   0.469     3
HC CT C4 CT 9 0.0 0.66944 3  sHC   sCT   sC4   sCT     9    0.66944   0.500     3
HC CT C5 O 9 0.0 3.34720 1  sHC   sCT   sC5    sO     9    3.34720   2.500     1
HC CT C5 O 9 180.0 0.33472 3  sHC   sCT   sC5    sO     9    0.33472   0.250     3
HC CT CM CM 9 0.0 4.81160 1  sHC   sCT   sCM   sCM     9    4.81160   3.594     1
HC CT CM CM 9 180.0 1.58992 3  sHC   sCT   sCM   sCM     9    1.58992   1.187     3
HC CT C O 9 0.0 3.34720 1  sHC   sCT    sC    sO     9    3.34720   2.500     1
HC CT C O 9 180.0 0.33472 3  sHC   sCT    sC    sO     9    0.33472   0.250     3
HC CT C OB 9 0.0 3.34720 1  sHC   sCT    sC   sOB     9    3.34720   2.500     1
HC CT C OB 9 180.0 0.33472 3  sHC   sCT    sC   sOB     9    0.33472   0.250     3
HC CT CT Br 9 0.0 2.30120 1  sHC   sCT   sCT   sBr     9    2.30120   1.719     1
HC CT CT C3 9 0.0 0.66944 3  sHC   sCT   sCT   sC3     9    0.66944   0.500     3
HC CT CT C4 9 0.0 0.66944 3  sHC   sCT   sCT   sC4     9    0.66944   0.500     3
HC CT CT C7 9 0.0 0.66944 3  sHC   sCT   sCT   sC7     9    0.66944   0.500     3
HC CT CT Cl 9 0.0 1.04600 1  sHC   sCT   sCT   sCl     9    1.04600   0.781     1
HC CT CT CT 9 0.0 0.66944 3  sHC   sCT   sCT   sCT     9    0.66944   0.500     3
HC CT CT F 9 0.0 0.79496 1  sHC   sCT   sCT    sF     9    0.79496   0.594     1
HC CT CT HC 9 0.0 0.62760 3  sHC   sCT   sCT   sHC     9    0.62760   0.469     3
HC CT CT OH 9 0.0 1.04600 1  sHC   sCT   sCT   sOH     9    1.04600   0.781     1
HC CT CT OS 9 0.0 1.04600 1  sHC   sCT   sCT   sOS     9    1.04600   0.781     1
H N C5 O 9 0.0 8.36800 1   sH    sN   sC5    sO     9    8.36800   6.250     1
H N C5 O 9 180.0 10.46000 2   sH    sN   sC5    sO     9    10.46000  7.812     2
H N C O 9 0.0 8.36800 1   sH    sN    sC    sO     9    8.36800   6.250     1
H N C O 9 180.0 10.46000 2   sH    sN    sC    sO     9    10.46000  7.812     2
HB N C OB 9 0.0 8.36800 1  sHB    sN    sC   sOB     9    8.36800   6.250     1
HB N C OB 9 180.0 10.46000 2  sHB    sN    sC   sOB     9    10.46000  7.812     2
HO O3 C8 CT 9 0.0 0.35982 1  sHO   sO3   sC8   sCT     9    0.35982   0.269     1
HO O3 C8 CT 9 0.0 0.41840 3  sHO   sO3   sC8   sCT     9    0.41840   0.312     3
HO O3 C8 CT 9 180.0 0.68199 2  sHO   sO3   sC8   sCT     9    0.68199   0.509     2
HO O3 C8 H1 9 0.0 0.41840 3  sHO   sO3   sC8   sH1     9    0.41840   0.312     3
HO OH C8 CT 9 0.0 0.25104 2  sHO   sOH   sC8   sCT     9    0.25104   0.187     2
HO OH C8 CT 9 0.0 0.83680 3  sHO   sOH   sC8   sCT     9    0.83680   0.625     3
HO OH C8 CT 9 0.0 3.13800 1  sHO   sOH   sC8   sCT     9    3.13800   2.344     1
HO OH C O 9 0.0 7.94960 1  sHO   sOH    sC    sO     9    7.94960   5.937     1
HO OH C O 9 180.0 9.62320 2  sHO   sOH    sC    sO     9    9.62320   7.187     2
HO OH CT CT 9 0.0 0.66944 3  sHO   sOH   sCT   sCT     9    0.66944   0.500     3
HO OH CT CT 9 0.0 1.04600 1  sHO   sOH   sCT   sCT     9    1.04600   0.781     1
N3 CT CT C3 9 0.0 0.81630 1  sN3   sCT   sCT   sC3     9    0.81630   0.610     1
N3 CT CT C3 9 180.0 3.53925 2  sN3   sCT   sCT   sC3     9    3.53925   2.643     2
N3 CT CT C6 9 180.0 11.02568 1  sN3   sCT   sCT   sC6     9    11.02568  8.234     1
N3 CT CT C6 9 180.0 4.98022 2  sN3   sCT   sCT   sC6     9    4.98022   3.719     2
N3 CT CT C6 9 180.0 0.02845 3  sN3   sCT   sCT   sC6     9    0.02845   0.021     3
N3 CT CT C6 9 0.0 1.76858 4  sN3   sCT   sCT   sC6     9    1.76858   1.321     4
N3 CT CT C6 9 0.0 0.96943 5  sN3   sCT   sCT   sC6     9    0.96943   0.724     5
N3 CT CT C6 9 180.0 0.89009 6  sN3   sCT   sCT   sC6     9    0.89009   0.665     6
N C1 C N 9 180.0 2.69445 1   sN   sC1    sC    sN     9    2.69445   2.012     1
N C1 C N 9 180.0 6.68666 2   sN   sC1    sC    sN     9    6.68666   4.994     2
N C1 C N 9 180.0 1.67111 3   sN   sC1    sC    sN     9    1.67111   1.248     3
N C1 C N 9 0.0 0.31419 4   sN   sC1    sC    sN     9    0.31419   0.235     4
N C5 CT CT 9 180.0 4.37772 1   sN   sC5   sCT   sCT     9    4.37772   3.269     1
N C5 CT CT 9 180.0 0.75730 2   sN   sC5   sCT   sCT     9    0.75730   0.566     2
N C5 CT CT 9 180.0 0.14811 3   sN   sC5   sCT   sCT     9    0.14811   0.111     3
N C5 CT CT 9 0.0 0.41966 4   sN   sC5   sCT   sCT     9    0.41966   0.313     4
N C5 CT CT 9 0.0 0.54308 5   sN   sC5   sCT   sCT     9    0.54308   0.406     5
N C5 CT CT 9 180.0 0.44373 6   sN   sC5   sCT   sCT     9    0.44373   0.331     6
N C7 C N 9 180.0 1.88280 1   sN   sC7    sC    sN     9    1.88280   1.406     1
N C7 C N 9 180.0 6.61072 2   sN   sC7    sC    sN     9    6.61072   4.937     2
N C7 C N 9 180.0 2.30120 3   sN   sC7    sC    sN     9    2.30120   1.719     3
N CT C8 CT 9 0.0 0.25104 1   sN   sCT   sC8   sCT     9    0.25104   0.187     1
N CT C8 CT 9 180.0 2.09200 2   sN   sCT   sC8   sCT     9    2.09200   1.562     2
N CT C8 CT 9 0.0 0.62760 3   sN   sCT   sC8   sCT     9    0.62760   0.469     3
N CT C8 CT 9 180.0 0.27196 4   sN   sCT   sC8   sCT     9    0.27196   0.203     4
N CT C8 O3 9 180.0 0.33472 1   sN   sCT   sC8   sO3     9    0.33472   0.250     1
N CT C8 OH 9 180.0 1.04600 1   sN   sCT   sC8   sOH     9    1.04600   0.781     1
N CT C N 9 360.0 0.82425 1   sN   sCT    sC    sN     9    0.82425   0.616     1
N CT C N 9 180.0 6.04588 2   sN   sCT    sC    sN     9    6.04588   4.515     2
N CT C N 9 180.0 2.00414 3   sN   sCT    sC    sN     9    2.00414   1.497     3
N CT C N 9 360.0 0.07991 4   sN   sCT    sC    sN     9    0.07991   0.060     4
N CT C N 9 360.0 0.01674 5   sN   sCT    sC    sN     9    0.01674   0.013     5
N CT CT C3 9 0.0 0.81630 1   sN   sCT   sCT   sC3     9    0.81630   0.610     1
N CT CT C3 9 180.0 3.53925 2   sN   sCT   sCT   sC3     9    3.53925   2.643     2
N CT CT C5 9 180.0 2.63592 1   sN   sCT   sCT   sC5     9    2.63592   1.969     1
N CT CT C6 9 180.0 12.05410 1   sN   sCT   sCT   sC6     9    12.05410  9.003     1
N CT CT C6 9 180.0 5.06682 2   sN   sCT   sCT   sC6     9    5.06682   3.784     2
N CT CT C6 9 0.0 0.25941 3   sN   sCT   sCT   sC6     9    0.25941   0.194     3
N CT CT C6 9 0.0 1.02508 4   sN   sCT   sCT   sC6     9    1.02508   0.766     4
N CT CT C6 9 0.0 0.54810 5   sN   sCT   sCT   sC6     9    0.54810   0.409     5
N CT CT C6 9 180.0 0.59413 6   sN   sCT   sCT   sC6     9    0.59413   0.444     6
N CT CT C9 9 0.0 0.41840 1   sN   sCT   sCT   sC9     9    0.41840   0.312     1
N CT CT CC 9 180.0 1.67360 1   sN   sCT   sCT   sCC     9    1.67360   1.250     1
N CT CT SH 9 180.0 2.30120 1   sN   sCT   sCT   sSH     9    2.30120   1.719     1
N CT CT SH 9 180.0 2.63592 2   sN   sCT   sCT   sSH     9    2.63592   1.969     2
N CT CT SH 9 180.0 0.25104 3   sN   sCT   sCT   sSH     9    0.25104   0.187     3
N CT CT SH 9 180.0 0.12552 4   sN   sCT   sCT   sSH     9    0.12552   0.094     4
O C OS CT 9 180.0 5.85760 1   sO    sC   sOS   sCT     9    5.85760   4.375     1
O C OS CT 9 180.0 11.29680 2   sO    sC   sOS   sCT     9    11.29680  8.437     2
OH CT CT OH 9 0.0 0.60250 3  sOH   sCT   sCT   sOH     9    0.60250   0.450     3
OH CT CT OH 9 0.0 4.91620 2  sOH   sCT   sCT   sOH     9    4.91620   3.672     2
OH P OS CT 9 0.0 1.04600 3  sOH    sP   sOS   sCT     9    1.04600   0.781     3
OH P OS CT 9 0.0 5.02080 2  sOH    sP   sOS   sCT     9    5.02080   3.750     2
OS CT CT OH 9 0.0 0.60250 3  sOS   sCT   sCT   sOH     9    0.60250   0.450     3
OS CT CT OH 9 0.0 4.91620 2  sOS   sCT   sCT   sOH     9    4.91620   3.672     2
OS CT CT OS 9 0.0 4.91620 2  sOS   sCT   sCT   sOS     9    4.91620   3.672     2
OS CT CT OS 9 0.0 0.60250 3  sOS   sCT   sCT   sOS     9    0.60250   0.450     3
OS CT N* CK 9 0.0 10.46000 1  sOS   sCT   sN*   sCK     9    10.46000  7.812     1
OS CT N* CM 9 0.0 10.46000 1  sOS   sCT   sN*   sCM     9    10.46000  7.812     1
OS P OS CT 9 0.0 5.02080 2  sOS    sP   sOS   sCT     9    5.02080   3.750     2
OS P OS CT 9 0.0 1.04600 3  sOS    sP   sOS   sCT     9    1.04600   0.781     3
N CT CT CA 9 0.0 0.00000 0   sN   sCT   sCT   sCA     9    0.00000   0.000     0
N CT CT C* 9 0.0 0.00000 0   sN   sCT   sCT   sC*     9    0.00000   0.000     0
CT CT C9 S 9 0.0 0.00000 0  sCT   sCT   sC9    sS     9    0.00000   0.000     0
CT CT C9 CT 9 0.0 0.00000 0  sCT   sCT   sC9   sCT     9    0.00000   0.000     0
X C1 N3 X 9 0.0 0.65084 3    X   sC1   sN3     X     9    0.65084   0.486     3
X C5 N X 9 180.0 10.46000 2    X   sC5    sN     X     9    10.46000  7.812     2
X C7 CT X 9 0.0 0.65084 3    X   sC7   sCT     X     9    0.65084   0.486     3
X C7 N3 X 9 0.0 0.65084 3    X   sC7   sN3     X     9    0.65084   0.486     3
X C8 O3 X 9 0.0 0.69873 3    X   sC8   sO3     X     9    0.69873   0.522     3
X C8 OH X 9 0.0 0.69873 3    X   sC8   sOH     X     9    0.69873   0.522     3
X C9 S X 9 0.0 1.39327 3    X   sC9    sS     X     9    1.39327   1.041     3
X CA CA X 9 180.0 15.16700 2    X   sCA   sCA     X     9    15.16700  11.327    2
X CA CB X 9 180.0 14.64400 2    X   sCA   sCB     X     9    14.64400  10.937    2
X CA CM X 9 180.0 10.66920 2    X   sCA   sCM     X     9    10.66920  7.968     2
X CA CN X 9 180.0 15.16700 2    X   sCA   sCN     X     9    15.16700  11.327    2
X CA N2 X 9 180.0 10.04160 2    X   sCA   sN2     X     9    10.04160  7.499     2
X CA NA X 9 180.0 6.27600 2    X   sCA   sNA     X     9    6.27600   4.687     2
X CA NC X 9 180.0 20.08320 2    X   sCA   sNC     X     9    20.08320  14.999    2
X CA OH X 9 180.0 3.76560 2    X   sCA   sOH     X     9    3.76560   2.812     2
X CB CB X 9 180.0 22.80280 2    X   sCB   sCB     X     9    22.80280  17.030    2
X CB CN X 9 180.0 12.55200 2    X   sCB   sCN     X     9    12.55200  9.374     2
X CB NB X 9 180.0 10.66920 2    X   sCB   sNB     X     9    10.66920  7.968     2
X CB NC X 9 180.0 17.36360 2    X   sCB   sNC     X     9    17.36360  12.968    2
X CB N* X 9 180.0 6.90360 2    X   sCB   sN*     X     9    6.90360   5.156     2
X C CA X 9 180.0 15.16700 2    X    sC   sCA     X     9    15.16700  11.327    2
X C CB X 9 180.0 12.55200 2    X    sC   sCB     X     9    12.55200  9.374     2
X C* CB X 9 180.0 7.00820 2    X   sC*   sCB     X     9    7.00820   5.234     2
X CC CV X 9 180.0 21.54760 2    X   sCC   sCV     X     9    21.54760  16.093    2
X CC CW X 9 180.0 22.48900 2    X   sCC   sCW     X     9    22.48900  16.796    2
X C CM X 9 180.0 9.10020 2    X    sC   sCM     X     9    9.10020   6.796     2
X CC NA X 9 180.0 5.85760 2    X   sCC   sNA     X     9    5.85760   4.375     2
X CC NB X 9 180.0 10.04160 2    X   sCC   sNB     X     9    10.04160  7.499     2
X C* CW X 9 180.0 27.30060 2    X   sC*   sCW     X     9    27.30060  20.389    2
X C C X 9 180.0 15.16700 2    X    sC    sC     X     9    15.16700  11.327    2
X CK NB X 9 180.0 41.84000 2    X   sCK   sNB     X     9    41.84000  31.248    2
X CK N* X 9 180.0 7.11280 2    X   sCK   sN*     X     9    7.11280   5.312     2
X CM CM X 9 180.0 27.82360 2    X   sCM   sCM     X     9    27.82360  20.780    2
X CM N* X 9 180.0 7.74040 2    X   sCM   sN*     X     9    7.74040   5.781     2
X CM OS X 9 180.0 4.39320 2    X   sCM   sOS     X     9    4.39320   3.281     2
X C NA X 9 180.0 5.64840 2    X    sC   sNA     X     9    5.64840   4.218     2
X C NC X 9 180.0 16.73600 2    X    sC   sNC     X     9    16.73600  12.499    2
X CN NA X 9 180.0 6.38060 2    X   sCN   sNA     X     9    6.38060   4.765     2
X C N X 9 180.0 10.46000 2    X    sC    sN     X     9    10.46000  7.812     2
X C N* X 9 180.0 6.06680 2    X    sC   sN*     X     9    6.06680   4.531     2
X C OH X 9 180.0 9.62320 2    X    sC   sOH     X     9    9.62320   7.187     2
X C OS X 9 180.0 11.29680 2    X    sC   sOS     X     9    11.29680  8.437     2
X C O X 9 180.0 11.71520 2    X    sC    sO     X     9    11.71520  8.749     2
X C OB X 9 180.0 11.71520 2    X    sC   sOB     X     9    11.71520  8.749     2
X CQ NC X 9 180.0 28.45120 2    X   sCQ   sNC     X     9    28.45120  21.249    2
X CR NA X 9 180.0 9.72780 2    X   sCR   sNA     X     9    9.72780   7.265     2
X CR NB X 9 180.0 20.92000 2    X   sCR   sNB     X     9    20.92000  15.624    2
X CT C8 X 9 0.0 0.64852 3    X   sCT   sC8     X     9    0.64852   0.484     3
X CT C9 X 9 0.0 0.64852 3    X   sCT   sC9     X     9    0.64852   0.484     3
X CT CT X 9 0.0 0.65084 3    X   sCT   sCT     X     9    0.65084   0.486     3
X CT N3 X 9 0.0 0.65084 3    X   sCT   sN3     X     9    0.65084   0.486     3
X CT OH X 9 0.0 0.69733 3    X   sCT   sOH     X     9    0.69733   0.521     3
X CT OS X 9 0.0 1.60387 3    X   sCT   sOS     X     9    1.60387   1.198     3
X CT SH X 9 0.0 1.04600 3    X   sCT   sSH     X     9    1.04600   0.781     3
X CT S X 9 0.0 1.39467 3    X   sCT    sS     X     9    1.39467   1.042     3
X CV NB X 9 180.0 10.04160 2    X   sCV   sNB     X     9    10.04160  7.499     2
X CW NA X 9 180.0 6.27600 2    X   sCW   sNA     X     9    6.27600   4.687     2
X OH P X 9 0.0 1.04600 3    X   sOH    sP     X     9    1.04600   0.781     3
X OS P X 9 0.0 1.04600 3    X   sOS    sP     X     9    1.04600   0.781     3
X C1 N X 9 0.0 0.00000 0    X   sC1    sN     X     9    0.00000   0.000     0
X C C1 X 9 0.0 0.00000 0    X    sC   sC1     X     9    0.00000   0.000     0
X C C9 X 9 0.0 0.00000 0    X    sC   sC9     X     9    0.00000   0.000     0
X C CT X 9 0.0 0.00000 0    X    sC   sCT     X     9    0.00000   0.000     0
X CA CT X 9 0.0 0.00000 0    X   sCA   sCT     X     9    0.00000   0.000     0
X CC CT X 9 0.0 0.00000 0    X   sCC   sCT     X     9    0.00000   0.000     0
X CM CT X 9 0.0 0.00000 0    X   sCM   sCT     X     9    0.00000   0.000     0
X CT N X 9 0.0 0.00000 0    X   sCT    sN     X     9    0.00000   0.000     0
X CT N* X 9 0.0 0.00000 0    X   sCT   sN*     X     9    0.00000   0.000     0
X CT N2 X 9 0.0 0.00000 0    X   sCT   sN2     X     9    0.00000   0.000     0
X C* CT X 9 0.0 0.00000 0    X   sC*   sCT     X     9    0.00000   0.000     0
X C7 N X 9 0.0 0.00000 0    X   sC7    sN     X     9    0.00000   0.000     0
X C C7 X 9 0.0 0.00000 0    X    sC   sC7     X     9    0.00000   0.000     0
X C5 CT X 9 0.0 0.00000 0    X   sC5   sCT     X     9    0.00000   0.000     0
X C6 CT X 9 0.0 0.00000 0    X   sC6   sCT     X     9    0.00000   0.000     0
C C1 N O 4 180.0 4.60240 2   sC   sC1    sN    sO     4    4.60240   3.195     2
C C1 N OB 4 180.0 4.60240 2   sC   sC1    sN   sOB     4    4.60240   3.195     2
C C1 N H 4 180.0 4.60240 2   sC   sC1    sN    sH     4    4.60240   3.195     2
C C1 N HB 4 180.0 4.60240 2   sC   sC1    sN   sHB     4    4.60240   3.195     2
C9 O C OH 4 180.0 43.93200 2  sC9    sO    sC   sOH     4    43.93200  30.501    2
CB CK N* CT 4 180.0 4.18400 2  sCB   sCK   sN*   sCT     4    4.18400   2.905     2
C CM N* CT 4 180.0 4.18400 2   sC   sCM   sN*   sCT     4    4.18400   2.905     2
CT O C OH 4 180.0 43.93200 2  sCT    sO    sC   sOH     4    43.93200  30.501    2
CT CV CC NA 4 180.0 4.60240 2  sCT   sCV   sCC   sNA     4    4.60240   3.195     2
CT CW CC NB 4 180.0 4.60240 2  sCT   sCW   sCC   sNB     4    4.60240   3.195     2
CT CC CW NB 4 180.0 4.60240 2  sCT   sCC   sCW   sNB     4    4.60240   3.195     2
CT CW CC NA 4 180.0 4.60240 2  sCT   sCW   sCC   sNA     4    4.60240   3.195     2
CB CT C* CW 4 180.0 4.60240 2  sCB   sCT   sC*   sCW     4    4.60240   3.195     2
CA CA CA CT 4 180.0 4.60240 2  sCA   sCA   sCA   sCT     4    4.60240   3.195     2
C CM CM CT 4 180.0 4.60240 2   sC   sCM   sCM   sCT     4    4.60240   3.195     2
CM N2 CA NC 4 180.0 4.60240 2  sCM   sN2   sCA   sNC     4    4.60240   3.195     2
CB N2 CA NC 4 180.0 4.60240 2  sCB   sN2   sCA   sNC     4    4.60240   3.195     2
N2 NA CA NC 4 180.0 4.60240 2  sN2   sNA   sCA   sNC     4    4.60240   3.195     2
CA CA C OH 4 180.0 4.60240 2  sCA   sCA    sC   sOH     4    4.60240   3.195     2
CA CA CA OH 4 180.0 4.60240 2  sCA   sCA   sCA   sOH     4    4.60240   3.195     2
H5 O C OH 4 180.0 4.60240 2  sH5    sO    sC   sOH     4    4.60240   3.195     2
H5 O C OS 4 180.0 4.60240 2  sH5    sO    sC   sOS     4    4.60240   3.195     2
CM CT CM HA 4 180.0 4.60240 2  sCM   sCT   sCM   sHA     4    4.60240   3.195     2
Br CA CA CA 4 180.0 4.60240 2  sBr   sCA   sCA   sCA     4    4.60240   3.195     2
CM H4 C O 4 180.0 4.60240 2  sCM   sH4    sC    sO     4    4.60240   3.195     2
C CT N H 4 180.0 4.60240 2   sC   sCT    sN    sH     4    4.60240   3.195     2
C CT N HB 4 180.0 4.60240 2   sC   sCT    sN   sHB     4    4.60240   3.195     2
C CT N O 4 180.0 4.60240 2   sC   sCT    sN    sO     4    4.60240   3.195     2
C C7 N O 4 180.0 4.60240 2   sC   sC7    sN    sO     4    4.60240   3.195     2
C CT N OB 4 180.0 4.60240 2   sC   sCT    sN   sOB     4    4.60240   3.195     2
C C7 N OB 4 180.0 4.60240 2   sC   sC7    sN   sOB     4    4.60240   3.195     2
C C7 N H 4 180.0 4.60240 2   sC   sC7    sN    sH     4    4.60240   3.195     2
C C7 N HB 4 180.0 4.60240 2   sC   sC7    sN   sHB     4    4.60240   3.195     2
C5 CT N O 4 180.0 4.60240 2  sC5   sCT    sN    sO     4    4.60240   3.195     2
C5 CT N OB 4 180.0 4.60240 2  sC5   sCT    sN   sOB     4    4.60240   3.195     2
C5 CT N H 4 180.0 4.60240 2  sC5   sCT    sN    sH     4    4.60240   3.195     2
C5 CT N HB 4 180.0 4.60240 2  sC5   sCT    sN   sHB     4    4.60240   3.195     2
X CT N C1 4 180.0 4.18400 2    X   sCT    sN   sC1     4    4.18400   2.905     2
X CT N C7 4 180.0 4.18400 2    X   sCT    sN   sC7     4    4.18400   2.905     2
X O2 C6 O2 4 180.0 43.93200 2    X   sO2   sC6   sO2     4    43.93200  30.501    2
X O2 C O2 4 180.0 43.93200 2    X   sO2    sC   sO2     4    43.93200  30.501    2
X N2 CA N2 4 180.0 43.93200 2    X   sN2   sCA   sN2     4    43.93200  30.501    2
X CT N CT 4 180.0 4.18400 2    X   sCT    sN   sCT     4    4.18400   2.905     2
X X C O 4 180.0 43.93200 2    X     X    sC    sO     4    43.93200  30.501    2
X X C OB 4 180.0 43.93200 2    X     X    sC   sOB     4    43.93200  30.501    2
X X N H 4 180.0 4.18400 2    X     X    sN    sH     4    4.18400   2.905     2
X X N2 H 4 180.0 4.18400 2    X     X   sN2    sH     4    4.18400   2.905     2
X X NA H 4 180.0 4.18400 2    X     X   sNA    sH     4    4.18400   2.905     2
X X CA HA 4 180.0 4.60240 2    X     X   sCA   sHA     4    4.60240   3.195     2
X X CW H4 4 180.0 4.60240 2    X     X   sCW   sH4     4    4.60240   3.195     2
X X CR H5 4 180.0 4.60240 2    X     X   sCR   sH5     4    4.60240   3.195     2
X X CV H4 4 180.0 4.60240 2    X     X   sCV   sH4     4    4.60240   3.195     2
X X CQ H5 4 180.0 4.60240 2    X     X   sCQ   sH5     4    4.60240   3.195     2
X X CK H5 4 180.0 4.60240 2    X     X   sCK   sH5     4    4.60240   3.195     2
X X CM H4 4 180.0 4.60240 2    X     X   sCM   sH4     4    4.60240   3.195     2
X X CM HA 4 180.0 4.60240 2    X     X   sCM   sHA     4    4.60240   3.195     2
X X CA H4 4 180.0 4.60240 2    X     X   sCA   sH4     4    4.60240   3.195     2
X X CA H5 4 180.0 4.60240 2    X     X   sCA   sH5     4    4.60240   3.195     2
X X C5 O 4 180.0 43.93200 2    X     X   sC5    sO     4    43.93200  30.501    2
C8 CT C N 9 0.0 0.83680 1  sC8   sCT    sC    sN     9    0.83680   0.581     1
C8 CT C N 9 0.0 0.83680 2  sC8   sCT    sC    sN     9    0.83680   0.581     2
C8 CT C N 9 0.0 1.67360 3  sC8   sCT    sC    sN     9    1.67360   1.162     3
C8 CT N C 9 0.0 8.36800 1  sC8   sCT    sN    sC     9    8.36800   5.810     1
C8 CT N C 9 0.0 8.36800 2  sC8   sCT    sN    sC     9    8.36800   5.810     2
C8 CT N C 9 0.0 1.67360 3  sC8   sCT    sN    sC     9    1.67360   1.162     3
C CT C8 O3 9 180.0 4.18400 1   sC   sCT   sC8   sO3     9    4.18400   2.905     1
C CT C8 OH 9 180.0 3.76560 1   sC   sCT   sC8   sOH     9    3.76560   2.614     1
C CT CT C4 9 0.0 2.39074 1   sC   sCT   sCT   sC4     9    2.39074   1.660     1
C CT CT C4 9 180.0 1.49913 2   sC   sCT   sCT   sC4     9    1.49913   1.041     2
C CT CT C4 9 0.0 0.56400 3   sC   sCT   sCT   sC4     9    0.56400   0.392     3
C CT CT C5 9 0.0 0.71421 1   sC   sCT   sCT   sC5     9    0.71421   0.496     1
C CT CT C5 9 180.0 2.49241 2   sC   sCT   sCT   sC5     9    2.49241   1.730     2
C CT CT C5 9 0.0 0.49580 3   sC   sCT   sCT   sC5     9    0.49580   0.344     3
C CT CT C5 9 180.0 1.74556 4   sC   sCT   sCT   sC5     9    1.74556   1.212     4
C CT CT C5 9 0.0 0.43597 5   sC   sCT   sCT   sC5     9    0.43597   0.303     5
C CT CT C5 9 180.0 0.42142 6   sC   sCT   sCT   sC5     9    0.42142   0.293     6
C CT CT C* 9 0.0 1.21336 1   sC   sCT   sCT   sC*     9    1.21336   0.842     1
C CT CT C9 9 0.0 1.25520 1   sC   sCT   sCT   sC9     9    1.25520   0.871     1
C CT CT CA 9 0.0 2.17568 1   sC   sCT   sCT   sCA     9    2.17568   1.511     1
C CT CT CC 9 0.0 2.92880 1   sC   sCT   sCT   sCC     9    2.92880   2.033     1
C CT CT SH 9 180.0 0.66944 1   sC   sCT   sCT   sSH     9    0.66944   0.465     1
Cl CT CT Cl 9 180.0 1.88280 1  sCl   sCT   sCT   sCl     9    1.88280   1.307     1
CM CM C O 9 180.0 9.10020 2  sCM   sCM    sC    sO     9    9.10020   6.318     2
CM CM C O 9 0.0 1.25520 3  sCM   sCM    sC    sO     9    1.25520   0.871     3
C N C1 C 9 0.0 0.35267 1   sC    sN   sC1    sC     9    0.35267   0.245     1
C N C1 C 9 0.0 1.59541 2   sC    sN   sC1    sC     9    1.59541   1.108     2
C N C1 C 9 180.0 0.08381 3   sC    sN   sC1    sC     9    0.08381   0.058     3
C N C1 C 9 0.0 0.32396 4   sC    sN   sC1    sC     9    0.32396   0.225     4
C N C7 C 9 0.0 1.12968 2   sC    sN   sC7    sC     9    1.12968   0.784     2
C N C7 C 9 0.0 1.75728 3   sC    sN   sC7    sC     9    1.75728   1.220     3
C N CT C 9 180.0 0.14226 1   sC    sN   sCT    sC     9    0.14226   0.099     1
C N CT C 9 0.0 1.40164 2   sC    sN   sCT    sC     9    1.40164   0.973     2
C N CT C 9 0.0 2.27610 3   sC    sN   sCT    sC     9    2.27610   1.580     3
C N CT C 9 0.0 0.33472 4   sC    sN   sCT    sC     9    0.33472   0.232     4
CT C7 C N 9 0.0 0.83680 1  sCT   sC7    sC    sN     9    0.83680   0.581     1
CT C7 C N 9 0.0 0.83680 2  sCT   sC7    sC    sN     9    0.83680   0.581     2
CT C7 C N 9 0.0 1.67360 3  sCT   sC7    sC    sN     9    1.67360   1.162     3
CT C7 N C 9 0.0 8.36800 1  sCT   sC7    sN    sC     9    8.36800   5.810     1
CT C7 N C 9 0.0 8.36800 2  sCT   sC7    sN    sC     9    8.36800   5.810     2
CT C7 N C 9 0.0 1.67360 3  sCT   sC7    sN    sC     9    1.67360   1.162     3
CT C9 C O2 9 180.0 2.51040 2  sCT   sC9    sC   sO2     9    2.51040   1.743     2
CT C9 C O 9 180.0 2.51040 2  sCT   sC9    sC    sO     9    2.51040   1.743     2
CT C9 C OB 9 180.0 2.51040 2  sCT   sC9    sC   sOB     9    2.51040   1.743     2
CT CM CM CT 9 180.0 27.82360 2  sCT   sCM   sCM   sCT     9    27.82360  19.317    2
CT CM CM CT 9 180.0 7.94960 1  sCT   sCM   sCM   sCT     9    7.94960   5.519     1
CT CT C4 CT 9 0.0 0.62760 3  sCT   sCT   sC4   sCT     9    0.62760   0.436     3
CT CT C5 O 9 180.0 4.18400 1  sCT   sCT   sC5    sO     9    4.18400   2.905     1
CT CT C6 O2 9 180.0 0.77822 4  sCT   sCT   sC6   sO2     9    0.77822   0.540     4
CT CT C6 O2 9 180.0 1.48114 6  sCT   sCT   sC6   sO2     9    1.48114   1.028     6
CT CT C6 O2 9 180.0 3.65263 2  sCT   sCT   sC6   sO2     9    3.65263   2.536     2
CT CT C* CW 9 0.0 5.02080 1  sCT   sCT   sC*   sCW     9    5.02080   3.486     1
CT CT C N 9 0.0 0.83680 1  sCT   sCT    sC    sN     9    0.83680   0.581     1
CT CT C N 9 0.0 0.83680 2  sCT   sCT    sC    sN     9    0.83680   0.581     2
CT CT C N 9 0.0 1.67360 3  sCT   sCT    sC    sN     9    1.67360   1.162     3
CT CT CT C3 9 0.0 0.62760 3  sCT   sCT   sCT   sC3     9    0.62760   0.436     3
CT CT CT C7 9 0.0 0.75312 3  sCT   sCT   sCT   sC7     9    0.75312   0.523     3
CT CT CT C7 9 180.0 0.83680 1  sCT   sCT   sCT   sC7     9    0.83680   0.581     1
CT CT CT C7 9 180.0 1.04600 2  sCT   sCT   sCT   sC7     9    1.04600   0.726     2
CT CT CT CT 9 0.0 0.62760 3  sCT   sCT   sCT   sCT     9    0.62760   0.436     3
CT CT N C 9 0.0 1.67360 3  sCT   sCT    sN    sC     9    1.67360   1.162     3
CT CT N C 9 0.0 8.36800 1  sCT   sCT    sN    sC     9    8.36800   5.810     1
CT CT N C 9 0.0 8.36800 2  sCT   sCT    sN    sC     9    8.36800   5.810     2
CT CT OS C 9 0.0 1.60247 3  sCT   sCT   sOS    sC     9    1.60247   1.113     3
CT CT OS C 9 180.0 3.34720 1  sCT   sCT   sOS    sC     9    3.34720   2.324     1
CT CT OS CT 9 0.0 1.60247 3  sCT   sCT   sOS   sCT     9    1.60247   1.113     3
CT CT OS CT 9 180.0 0.41840 2  sCT   sCT   sOS   sCT     9    0.41840   0.290     2
CT CT SH HS 9 0.0 0.83680 3  sCT   sCT   sSH   sHS     9    0.83680   0.581     3
CT CT SH HS 9 0.0 2.09200 2  sCT   sCT   sSH   sHS     9    2.09200   1.452     2
CT OS CT N* 9 0.0 1.60247 3  sCT   sOS   sCT   sN*     9    1.60247   1.113     3
CT OS CT N* 9 0.0 2.71960 2  sCT   sOS   sCT   sN*     9    2.71960   1.888     2
CT OS CT OS 9 0.0 0.41840 3  sCT   sOS   sCT   sOS     9    0.41840   0.290     3
CT OS CT OS 9 180.0 3.55640 2  sCT   sOS   sCT   sOS     9    3.55640   2.469     2
CT OS CT OS 9 180.0 5.64840 1  sCT   sOS   sCT   sOS     9    5.64840   3.922     1
CT S S CT 9 0.0 14.64400 2  sCT    sS    sS   sCT     9    14.64400  10.167    2
CT S S CT 9 0.0 2.51040 3  sCT    sS    sS   sCT     9    2.51040   1.743     3
F CT CT F 9 180.0 5.02080 1   sF   sCT   sCT    sF     9    5.02080   3.486     1
H1 C1 C O 9 0.0 3.34720 1  sH1   sC1    sC    sO     9    3.34720   2.324     1
H1 C1 C O 9 180.0 0.33472 3  sH1   sC1    sC    sO     9    0.33472   0.232     3
H1 C7 C O 9 0.0 3.34720 1  sH1   sC7    sC    sO     9    3.34720   2.324     1
H1 C7 C O 9 180.0 0.33472 3  sH1   sC7    sC    sO     9    0.33472   0.232     3
H1 CT C O 9 0.0 3.34720 1  sH1   sCT    sC    sO     9    3.34720   2.324     1
H1 CT C O 9 180.0 0.33472 3  sH1   sCT    sC    sO     9    0.33472   0.232     3
H1 C1 C OB 9 0.0 3.34720 1  sH1   sC1    sC   sOB     9    3.34720   2.324     1
H1 C1 C OB 9 180.0 0.33472 3  sH1   sC1    sC   sOB     9    0.33472   0.232     3
H1 C7 C OB 9 0.0 3.34720 1  sH1   sC7    sC   sOB     9    3.34720   2.324     1
H1 C7 C OB 9 180.0 0.33472 3  sH1   sC7    sC   sOB     9    0.33472   0.232     3
H1 CT C OB 9 0.0 3.34720 1  sH1   sCT    sC   sOB     9    3.34720   2.324     1
H1 CT C OB 9 180.0 0.33472 3  sH1   sCT    sC   sOB     9    0.33472   0.232     3
H1 CT CT Br 9 0.0 2.30120 1  sH1   sCT   sCT   sBr     9    2.30120   1.598     1
H1 CT CT Cl 9 0.0 1.04600 1  sH1   sCT   sCT   sCl     9    1.04600   0.726     1
H1 CT CT F 9 0.0 0.79496 1  sH1   sCT   sCT    sF     9    0.79496   0.552     1
H1 CT CT OH 9 0.0 1.04600 1  sH1   sCT   sCT   sOH     9    1.04600   0.726     1
H1 CT CT OS 9 0.0 1.04600 1  sH1   sCT   sCT   sOS     9    1.04600   0.726     1
HC C3 CT CT 9 0.0 0.66944 3  sHC   sC3   sCT   sCT     9    0.66944   0.465     3
HC C4 CT CT 9 0.0 0.66944 3  sHC   sC4   sCT   sCT     9    0.66944   0.465     3
HC C4 CT HC 9 0.0 0.62760 3  sHC   sC4   sCT   sHC     9    0.62760   0.436     3
HC CT C3 HC 9 0.0 0.62760 3  sHC   sCT   sC3   sHC     9    0.62760   0.436     3
HC CT C4 CT 9 0.0 0.66944 3  sHC   sCT   sC4   sCT     9    0.66944   0.465     3
HC CT C5 O 9 0.0 3.34720 1  sHC   sCT   sC5    sO     9    3.34720   2.324     1
HC CT C5 O 9 180.0 0.33472 3  sHC   sCT   sC5    sO     9    0.33472   0.232     3
HC CT CM CM 9 0.0 4.81160 1  sHC   sCT   sCM   sCM     9    4.81160   3.341     1
HC CT CM CM 9 180.0 1.58992 3  sHC   sCT   sCM   sCM     9    1.58992   1.104     3
HC CT C O 9 0.0 3.34720 1  sHC   sCT    sC    sO     9    3.34720   2.324     1
HC CT C O 9 180.0 0.33472 3  sHC   sCT    sC    sO     9    0.33472   0.232     3
HC CT C OB 9 0.0 3.34720 1  sHC   sCT    sC   sOB     9    3.34720   2.324     1
HC CT C OB 9 180.0 0.33472 3  sHC   sCT    sC   sOB     9    0.33472   0.232     3
HC CT CT Br 9 0.0 2.30120 1  sHC   sCT   sCT   sBr     9    2.30120   1.598     1
HC CT CT C3 9 0.0 0.66944 3  sHC   sCT   sCT   sC3     9    0.66944   0.465     3
HC CT CT C4 9 0.0 0.66944 3  sHC   sCT   sCT   sC4     9    0.66944   0.465     3
HC CT CT C7 9 0.0 0.66944 3  sHC   sCT   sCT   sC7     9    0.66944   0.465     3
HC CT CT Cl 9 0.0 1.04600 1  sHC   sCT   sCT   sCl     9    1.04600   0.726     1
HC CT CT CT 9 0.0 0.66944 3  sHC   sCT   sCT   sCT     9    0.66944   0.465     3
HC CT CT F 9 0.0 0.79496 1  sHC   sCT   sCT    sF     9    0.79496   0.552     1
HC CT CT HC 9 0.0 0.62760 3  sHC   sCT   sCT   sHC     9    0.62760   0.436     3
HC CT CT OH 9 0.0 1.04600 1  sHC   sCT   sCT   sOH     9    1.04600   0.726     1
HC CT CT OS 9 0.0 1.04600 1  sHC   sCT   sCT   sOS     9    1.04600   0.726     1
H N C5 O 9 0.0 8.36800 1   sH    sN   sC5    sO     9    8.36800   5.810     1
H N C5 O 9 180.0 10.46000 2   sH    sN   sC5    sO     9    10.46000  7.262     2
H N C O 9 0.0 8.36800 1   sH    sN    sC    sO     9    8.36800   5.810     1
H N C O 9 180.0 10.46000 2   sH    sN    sC    sO     9    10.46000  7.262     2
HB N C OB 9 0.0 8.36800 1  sHB    sN    sC   sOB     9    8.36800   5.810     1
HB N C OB 9 180.0 10.46000 2  sHB    sN    sC   sOB     9    10.46000  7.262     2
HO O3 C8 CT 9 0.0 0.35982 1  sHO   sO3   sC8   sCT     9    0.35982   0.250     1
HO O3 C8 CT 9 0.0 0.41840 3  sHO   sO3   sC8   sCT     9    0.41840   0.290     3
HO O3 C8 CT 9 180.0 0.68199 2  sHO   sO3   sC8   sCT     9    0.68199   0.473     2
HO O3 C8 H1 9 0.0 0.41840 3  sHO   sO3   sC8   sH1     9    0.41840   0.290     3
HO OH C8 CT 9 0.0 0.25104 2  sHO   sOH   sC8   sCT     9    0.25104   0.174     2
HO OH C8 CT 9 0.0 0.83680 3  sHO   sOH   sC8   sCT     9    0.83680   0.581     3
HO OH C8 CT 9 0.0 3.13800 1  sHO   sOH   sC8   sCT     9    3.13800   2.179     1
HO OH C O 9 0.0 7.94960 1  sHO   sOH    sC    sO     9    7.94960   5.519     1
HO OH C O 9 180.0 9.62320 2  sHO   sOH    sC    sO     9    9.62320   6.681     2
HO OH CT CT 9 0.0 0.66944 3  sHO   sOH   sCT   sCT     9    0.66944   0.465     3
HO OH CT CT 9 0.0 1.04600 1  sHO   sOH   sCT   sCT     9    1.04600   0.726     1
N3 CT CT C3 9 0.0 0.81630 1  sN3   sCT   sCT   sC3     9    0.81630   0.567     1
N3 CT CT C3 9 180.0 3.53925 2  sN3   sCT   sCT   sC3     9    3.53925   2.457     2
N3 CT CT C6 9 180.0 11.02568 1  sN3   sCT   sCT   sC6     9    11.02568  7.655     1
N3 CT CT C6 9 180.0 4.98022 2  sN3   sCT   sCT   sC6     9    4.98022   3.458     2
N3 CT CT C6 9 180.0 0.02845 3  sN3   sCT   sCT   sC6     9    0.02845   0.020     3
N3 CT CT C6 9 0.0 1.76858 4  sN3   sCT   sCT   sC6     9    1.76858   1.228     4
N3 CT CT C6 9 0.0 0.96943 5  sN3   sCT   sCT   sC6     9    0.96943   0.673     5
N3 CT CT C6 9 180.0 0.89009 6  sN3   sCT   sCT   sC6     9    0.89009   0.618     6
N C1 C N 9 180.0 2.69445 1   sN   sC1    sC    sN     9    2.69445   1.871     1
N C1 C N 9 180.0 6.68666 2   sN   sC1    sC    sN     9    6.68666   4.642     2
N C1 C N 9 180.0 1.67111 3   sN   sC1    sC    sN     9    1.67111   1.160     3
N C1 C N 9 0.0 0.31419 4   sN   sC1    sC    sN     9    0.31419   0.218     4
N C5 CT CT 9 180.0 4.37772 1   sN   sC5   sCT   sCT     9    4.37772   3.039     1
N C5 CT CT 9 180.0 0.75730 2   sN   sC5   sCT   sCT     9    0.75730   0.526     2
N C5 CT CT 9 180.0 0.14811 3   sN   sC5   sCT   sCT     9    0.14811   0.103     3
N C5 CT CT 9 0.0 0.41966 4   sN   sC5   sCT   sCT     9    0.41966   0.291     4
N C5 CT CT 9 0.0 0.54308 5   sN   sC5   sCT   sCT     9    0.54308   0.377     5
N C5 CT CT 9 180.0 0.44373 6   sN   sC5   sCT   sCT     9    0.44373   0.308     6
N C7 C N 9 180.0 1.88280 1   sN   sC7    sC    sN     9    1.88280   1.307     1
N C7 C N 9 180.0 6.61072 2   sN   sC7    sC    sN     9    6.61072   4.590     2
N C7 C N 9 180.0 2.30120 3   sN   sC7    sC    sN     9    2.30120   1.598     3
N CT C8 CT 9 0.0 0.25104 1   sN   sCT   sC8   sCT     9    0.25104   0.174     1
N CT C8 CT 9 180.0 2.09200 2   sN   sCT   sC8   sCT     9    2.09200   1.452     2
N CT C8 CT 9 0.0 0.62760 3   sN   sCT   sC8   sCT     9    0.62760   0.436     3
N CT C8 CT 9 180.0 0.27196 4   sN   sCT   sC8   sCT     9    0.27196   0.189     4
N CT C8 O3 9 180.0 0.33472 1   sN   sCT   sC8   sO3     9    0.33472   0.232     1
N CT C8 OH 9 180.0 1.04600 1   sN   sCT   sC8   sOH     9    1.04600   0.726     1
N CT C N 9 360.0 0.82425 1   sN   sCT    sC    sN     9    0.82425   0.572     1
N CT C N 9 180.0 6.04588 2   sN   sCT    sC    sN     9    6.04588   4.198     2
N CT C N 9 180.0 2.00414 3   sN   sCT    sC    sN     9    2.00414   1.391     3
N CT C N 9 360.0 0.07991 4   sN   sCT    sC    sN     9    0.07991   0.055     4
N CT C N 9 360.0 0.01674 5   sN   sCT    sC    sN     9    0.01674   0.012     5
N CT CT C3 9 0.0 0.81630 1   sN   sCT   sCT   sC3     9    0.81630   0.567     1
N CT CT C3 9 180.0 3.53925 2   sN   sCT   sCT   sC3     9    3.53925   2.457     2
N CT CT C5 9 180.0 2.63592 1   sN   sCT   sCT   sC5     9    2.63592   1.830     1
N CT CT C6 9 180.0 12.05410 1   sN   sCT   sCT   sC6     9    12.05410  8.369     1
N CT CT C6 9 180.0 5.06682 2   sN   sCT   sCT   sC6     9    5.06682   3.518     2
N CT CT C6 9 0.0 0.25941 3   sN   sCT   sCT   sC6     9    0.25941   0.180     3
N CT CT C6 9 0.0 1.02508 4   sN   sCT   sCT   sC6     9    1.02508   0.712     4
N CT CT C6 9 0.0 0.54810 5   sN   sCT   sCT   sC6     9    0.54810   0.381     5
N CT CT C6 9 180.0 0.59413 6   sN   sCT   sCT   sC6     9    0.59413   0.412     6
N CT CT C9 9 0.0 0.41840 1   sN   sCT   sCT   sC9     9    0.41840   0.290     1
N CT CT CC 9 180.0 1.67360 1   sN   sCT   sCT   sCC     9    1.67360   1.162     1
N CT CT SH 9 180.0 2.30120 1   sN   sCT   sCT   sSH     9    2.30120   1.598     1
N CT CT SH 9 180.0 2.63592 2   sN   sCT   sCT   sSH     9    2.63592   1.830     2
N CT CT SH 9 180.0 0.25104 3   sN   sCT   sCT   sSH     9    0.25104   0.174     3
N CT CT SH 9 180.0 0.12552 4   sN   sCT   sCT   sSH     9    0.12552   0.087     4
O C OS CT 9 180.0 5.85760 1   sO    sC   sOS   sCT     9    5.85760   4.067     1
O C OS CT 9 180.0 11.29680 2   sO    sC   sOS   sCT     9    11.29680  7.843     2
OH CT CT OH 9 0.0 0.60250 3  sOH   sCT   sCT   sOH     9    0.60250   0.418     3
OH CT CT OH 9 0.0 4.91620 2  sOH   sCT   sCT   sOH     9    4.91620   3.413     2
OH P OS CT 9 0.0 1.04600 3  sOH    sP   sOS   sCT     9    1.04600   0.726     3
OH P OS CT 9 0.0 5.02080 2  sOH    sP   sOS   sCT     9    5.02080   3.486     2
OS CT CT OH 9 0.0 0.60250 3  sOS   sCT   sCT   sOH     9    0.60250   0.418     3
OS CT CT OH 9 0.0 4.91620 2  sOS   sCT   sCT   sOH     9    4.91620   3.413     2
OS CT CT OS 9 0.0 4.91620 2  sOS   sCT   sCT   sOS     9    4.91620   3.413     2
OS CT CT OS 9 0.0 0.60250 3  sOS   sCT   sCT   sOS     9    0.60250   0.418     3
OS CT N* CK 9 0.0 10.46000 1  sOS   sCT   sN*   sCK     9    10.46000  7.262     1
OS CT N* CM 9 0.0 10.46000 1  sOS   sCT   sN*   sCM     9    10.46000  7.262     1
OS P OS CT 9 0.0 5.02080 2  sOS    sP   sOS   sCT     9    5.02080   3.486     2
OS P OS CT 9 0.0 1.04600 3  sOS    sP   sOS   sCT     9    1.04600   0.726     3
N CT CT CA 9 0.0 0.00000 0   sN   sCT   sCT   sCA     9    0.00000   0.000     0
N CT CT C* 9 0.0 0.00000 0   sN   sCT   sCT   sC*     9    0.00000   0.000     0
CT CT C9 S 9 0.0 0.00000 0  sCT   sCT   sC9    sS     9    0.00000   0.000     0
CT CT C9 CT 9 0.0 0.00000 0  sCT   sCT   sC9   sCT     9    0.00000   0.000     0
X C1 N3 X 9 0.0 0.65084 3    X   sC1   sN3     X     9    0.65084   0.452     3
X C5 N X 9 180.0 10.46000 2    X   sC5    sN     X     9    10.46000  7.262     2
X C7 CT X 9 0.0 0.65084 3    X   sC7   sCT     X     9    0.65084   0.452     3
X C7 N3 X 9 0.0 0.65084 3    X   sC7   sN3     X     9    0.65084   0.452     3
X C8 O3 X 9 0.0 0.69873 3    X   sC8   sO3     X     9    0.69873   0.485     3
X C8 OH X 9 0.0 0.69873 3    X   sC8   sOH     X     9    0.69873   0.485     3
X C9 S X 9 0.0 1.39327 3    X   sC9    sS     X     9    1.39327   0.967     3
X CA CA X 9 180.0 15.16700 2    X   sCA   sCA     X     9    15.16700  10.530    2
X CA CB X 9 180.0 14.64400 2    X   sCA   sCB     X     9    14.64400  10.167    2
X CA CM X 9 180.0 10.66920 2    X   sCA   sCM     X     9    10.66920  7.407     2
X CA CN X 9 180.0 15.16700 2    X   sCA   sCN     X     9    15.16700  10.530    2
X CA N2 X 9 180.0 10.04160 2    X   sCA   sN2     X     9    10.04160  6.972     2
X CA NA X 9 180.0 6.27600 2    X   sCA   sNA     X     9    6.27600   4.357     2
X CA NC X 9 180.0 20.08320 2    X   sCA   sNC     X     9    20.08320  13.943    2
X CA OH X 9 180.0 3.76560 2    X   sCA   sOH     X     9    3.76560   2.614     2
X CB CB X 9 180.0 22.80280 2    X   sCB   sCB     X     9    22.80280  15.832    2
X CB CN X 9 180.0 12.55200 2    X   sCB   sCN     X     9    12.55200  8.715     2
X CB NB X 9 180.0 10.66920 2    X   sCB   sNB     X     9    10.66920  7.407     2
X CB NC X 9 180.0 17.36360 2    X   sCB   sNC     X     9    17.36360  12.055    2
X CB N* X 9 180.0 6.90360 2    X   sCB   sN*     X     9    6.90360   4.793     2
X C CA X 9 180.0 15.16700 2    X    sC   sCA     X     9    15.16700  10.530    2
X C CB X 9 180.0 12.55200 2    X    sC   sCB     X     9    12.55200  8.715     2
X C* CB X 9 180.0 7.00820 2    X   sC*   sCB     X     9    7.00820   4.866     2
X CC CV X 9 180.0 21.54760 2    X   sCC   sCV     X     9    21.54760  14.960    2
X CC CW X 9 180.0 22.48900 2    X   sCC   sCW     X     9    22.48900  15.614    2
X C CM X 9 180.0 9.10020 2    X    sC   sCM     X     9    9.10020   6.318     2
X CC NA X 9 180.0 5.85760 2    X   sCC   sNA     X     9    5.85760   4.067     2
X CC NB X 9 180.0 10.04160 2    X   sCC   sNB     X     9    10.04160  6.972     2
X C* CW X 9 180.0 27.30060 2    X   sC*   sCW     X     9    27.30060  18.954    2
X C C X 9 180.0 15.16700 2    X    sC    sC     X     9    15.16700  10.530    2
X CK NB X 9 180.0 41.84000 2    X   sCK   sNB     X     9    41.84000  29.049    2
X CK N* X 9 180.0 7.11280 2    X   sCK   sN*     X     9    7.11280   4.938     2
X CM CM X 9 180.0 27.82360 2    X   sCM   sCM     X     9    27.82360  19.317    2
X CM N* X 9 180.0 7.74040 2    X   sCM   sN*     X     9    7.74040   5.374     2
X CM OS X 9 180.0 4.39320 2    X   sCM   sOS     X     9    4.39320   3.050     2
X C NA X 9 180.0 5.64840 2    X    sC   sNA     X     9    5.64840   3.922     2
X C NC X 9 180.0 16.73600 2    X    sC   sNC     X     9    16.73600  11.620    2
X CN NA X 9 180.0 6.38060 2    X   sCN   sNA     X     9    6.38060   4.430     2
X C N X 9 180.0 10.46000 2    X    sC    sN     X     9    10.46000  7.262     2
X C N* X 9 180.0 6.06680 2    X    sC   sN*     X     9    6.06680   4.212     2
X C OH X 9 180.0 9.62320 2    X    sC   sOH     X     9    9.62320   6.681     2
X C OS X 9 180.0 11.29680 2    X    sC   sOS     X     9    11.29680  7.843     2
X C O X 9 180.0 11.71520 2    X    sC    sO     X     9    11.71520  8.134     2
X C OB X 9 180.0 11.71520 2    X    sC   sOB     X     9    11.71520  8.134     2
X CQ NC X 9 180.0 28.45120 2    X   sCQ   sNC     X     9    28.45120  19.753    2
X CR NA X 9 180.0 9.72780 2    X   sCR   sNA     X     9    9.72780   6.754     2
X CR NB X 9 180.0 20.92000 2    X   sCR   sNB     X     9    20.92000  14.524    2
X CT C8 X 9 0.0 0.64852 3    X   sCT   sC8     X     9    0.64852   0.450     3
X CT C9 X 9 0.0 0.64852 3    X   sCT   sC9     X     9    0.64852   0.450     3
X CT CT X 9 0.0 0.65084 3    X   sCT   sCT     X     9    0.65084   0.452     3
X CT N3 X 9 0.0 0.65084 3    X   sCT   sN3     X     9    0.65084   0.452     3
X CT OH X 9 0.0 0.69733 3    X   sCT   sOH     X     9    0.69733   0.484     3
X CT OS X 9 0.0 1.60387 3    X   sCT   sOS     X     9    1.60387   1.114     3
X CT SH X 9 0.0 1.04600 3    X   sCT   sSH     X     9    1.04600   0.726     3
X CT S X 9 0.0 1.39467 3    X   sCT    sS     X     9    1.39467   0.968     3
X CV NB X 9 180.0 10.04160 2    X   sCV   sNB     X     9    10.04160  6.972     2
X CW NA X 9 180.0 6.27600 2    X   sCW   sNA     X     9    6.27600   4.357     2
X OH P X 9 0.0 1.04600 3    X   sOH    sP     X     9    1.04600   0.726     3
X OS P X 9 0.0 1.04600 3    X   sOS    sP     X     9    1.04600   0.726     3
X C1 N X 9 0.0 0.00000 0    X   sC1    sN     X     9    0.00000   0.000     0
X C C1 X 9 0.0 0.00000 0    X    sC   sC1     X     9    0.00000   0.000     0
X C C9 X 9 0.0 0.00000 0    X    sC   sC9     X     9    0.00000   0.000     0
X C CT X 9 0.0 0.00000 0    X    sC   sCT     X     9    0.00000   0.000     0
X CA CT X 9 0.0 0.00000 0    X   sCA   sCT     X     9    0.00000   0.000     0
X CC CT X 9 0.0 0.00000 0    X   sCC   sCT     X     9    0.00000   0.000     0
X CM CT X 9 0.0 0.00000 0    X   sCM   sCT     X     9    0.00000   0.000     0
X CT N X 9 0.0 0.00000 0    X   sCT    sN     X     9    0.00000   0.000     0
X CT N* X 9 0.0 0.00000 0    X   sCT   sN*     X     9    0.00000   0.000     0
X CT N2 X 9 0.0 0.00000 0    X   sCT   sN2     X     9    0.00000   0.000     0
X C* CT X 9 0.0 0.00000 0    X   sC*   sCT     X     9    0.00000   0.000     0
X C7 N X 9 0.0 0.00000 0    X   sC7    sN     X     9    0.00000   0.000     0
X C C7 X 9 0.0 0.00000 0    X    sC   sC7     X     9    0.00000   0.000     0
X C5 CT X 9 0.0 0.00000 0    X   sC5   sCT     X     9    0.00000   0.000     0
X C6 CT X 9 0.0 0.00000 0    X   sC6   sCT     X     9    0.00000   0.000     0
C C1 N O 4 180.0 4.60240 2   sC   sC1    sN    sO     4    4.60240   2.970     2
C C1 N OB 4 180.0 4.60240 2   sC   sC1    sN   sOB     4    4.60240   2.970     2
C C1 N H 4 180.0 4.60240 2   sC   sC1    sN    sH     4    4.60240   2.970     2
C C1 N HB 4 180.0 4.60240 2   sC   sC1    sN   sHB     4    4.60240   2.970     2
C9 O C OH 4 180.0 43.93200 2  sC9    sO    sC   sOH     4    43.93200  28.355    2
CB CK N* CT 4 180.0 4.18400 2  sCB   sCK   sN*   sCT     4    4.18400   2.700     2
C CM N* CT 4 180.0 4.18400 2   sC   sCM   sN*   sCT     4    4.18400   2.700     2
CT O C OH 4 180.0 43.93200 2  sCT    sO    sC   sOH     4    43.93200  28.355    2
CT CV CC NA 4 180.0 4.60240 2  sCT   sCV   sCC   sNA     4    4.60240   2.970     2
CT CW CC NB 4 180.0 4.60240 2  sCT   sCW   sCC   sNB     4    4.60240   2.970     2
CT CC CW NB 4 180.0 4.60240 2  sCT   sCC   sCW   sNB     4    4.60240   2.970     2
CT CW CC NA 4 180.0 4.60240 2  sCT   sCW   sCC   sNA     4    4.60240   2.970     2
CB CT C* CW 4 180.0 4.60240 2  sCB   sCT   sC*   sCW     4    4.60240   2.970     2
CA CA CA CT 4 180.0 4.60240 2  sCA   sCA   sCA   sCT     4    4.60240   2.970     2
C CM CM CT 4 180.0 4.60240 2   sC   sCM   sCM   sCT     4    4.60240   2.970     2
CM N2 CA NC 4 180.0 4.60240 2  sCM   sN2   sCA   sNC     4    4.60240   2.970     2
CB N2 CA NC 4 180.0 4.60240 2  sCB   sN2   sCA   sNC     4    4.60240   2.970     2
N2 NA CA NC 4 180.0 4.60240 2  sN2   sNA   sCA   sNC     4    4.60240   2.970     2
CA CA C OH 4 180.0 4.60240 2  sCA   sCA    sC   sOH     4    4.60240   2.970     2
CA CA CA OH 4 180.0 4.60240 2  sCA   sCA   sCA   sOH     4    4.60240   2.970     2
H5 O C OH 4 180.0 4.60240 2  sH5    sO    sC   sOH     4    4.60240   2.970     2
H5 O C OS 4 180.0 4.60240 2  sH5    sO    sC   sOS     4    4.60240   2.970     2
CM CT CM HA 4 180.0 4.60240 2  sCM   sCT   sCM   sHA     4    4.60240   2.970     2
Br CA CA CA 4 180.0 4.60240 2  sBr   sCA   sCA   sCA     4    4.60240   2.970     2
CM H4 C O 4 180.0 4.60240 2  sCM   sH4    sC    sO     4    4.60240   2.970     2
C CT N H 4 180.0 4.60240 2   sC   sCT    sN    sH     4    4.60240   2.970     2
C CT N HB 4 180.0 4.60240 2   sC   sCT    sN   sHB     4    4.60240   2.970     2
C CT N O 4 180.0 4.60240 2   sC   sCT    sN    sO     4    4.60240   2.970     2
C C7 N O 4 180.0 4.60240 2   sC   sC7    sN    sO     4    4.60240   2.970     2
C CT N OB 4 180.0 4.60240 2   sC   sCT    sN   sOB     4    4.60240   2.970     2
C C7 N OB 4 180.0 4.60240 2   sC   sC7    sN   sOB     4    4.60240   2.970     2
C C7 N H 4 180.0 4.60240 2   sC   sC7    sN    sH     4    4.60240   2.970     2
C C7 N HB 4 180.0 4.60240 2   sC   sC7    sN   sHB     4    4.60240   2.970     2
C5 CT N O 4 180.0 4.60240 2  sC5   sCT    sN    sO     4    4.60240   2.970     2
C5 CT N OB 4 180.0 4.60240 2  sC5   sCT    sN   sOB     4    4.60240   2.970     2
C5 CT N H 4 180.0 4.60240 2  sC5   sCT    sN    sH     4    4.60240   2.970     2
C5 CT N HB 4 180.0 4.60240 2  sC5   sCT    sN   sHB     4    4.60240   2.970     2
X CT N C1 4 180.0 4.18400 2    X   sCT    sN   sC1     4    4.18400   2.700     2
X CT N C7 4 180.0 4.18400 2    X   sCT    sN   sC7     4    4.18400   2.700     2
X O2 C6 O2 4 180.0 43.93200 2    X   sO2   sC6   sO2     4    43.93200  28.355    2
X O2 C O2 4 180.0 43.93200 2    X   sO2    sC   sO2     4    43.93200  28.355    2
X N2 CA N2 4 180.0 43.93200 2    X   sN2   sCA   sN2     4    43.93200  28.355    2
X CT N CT 4 180.0 4.18400 2    X   sCT    sN   sCT     4    4.18400   2.700     2
X X C O 4 180.0 43.93200 2    X     X    sC    sO     4    43.93200  28.355    2
X X C OB 4 180.0 43.93200 2    X     X    sC   sOB     4    43.93200  28.355    2
X X N H 4 180.0 4.18400 2    X     X    sN    sH     4    4.18400   2.700     2
X X N2 H 4 180.0 4.18400 2    X     X   sN2    sH     4    4.18400   2.700     2
X X NA H 4 180.0 4.18400 2    X     X   sNA    sH     4    4.18400   2.700     2
X X CA HA 4 180.0 4.60240 2    X     X   sCA   sHA     4    4.60240   2.970     2
X X CW H4 4 180.0 4.60240 2    X     X   sCW   sH4     4    4.60240   2.970     2
X X CR H5 4 180.0 4.60240 2    X     X   sCR   sH5     4    4.60240   2.970     2
X X CV H4 4 180.0 4.60240 2    X     X   sCV   sH4     4    4.60240   2.970     2
X X CQ H5 4 180.0 4.60240 2    X     X   sCQ   sH5     4    4.60240   2.970     2
X X CK H5 4 180.0 4.60240 2    X     X   sCK   sH5     4    4.60240   2.970     2
X X CM H4 4 180.0 4.60240 2    X     X   sCM   sH4     4    4.60240   2.970     2
X X CM HA 4 180.0 4.60240 2    X     X   sCM   sHA     4    4.60240   2.970     2
X X CA H4 4 180.0 4.60240 2    X     X   sCA   sH4     4    4.60240   2.970     2
X X CA H5 4 180.0 4.60240 2    X     X   sCA   sH5     4    4.60240   2.970     2
X X C5 O 4 180.0 43.93200 2    X     X   sC5    sO     4    43.93200  28.355    2
C8 CT C N 9 0.0 0.83680 1  sC8   sCT    sC    sN     9    0.83680   0.540     1
C8 CT C N 9 0.0 0.83680 2  sC8   sCT    sC    sN     9    0.83680   0.540     2
C8 CT C N 9 0.0 1.67360 3  sC8   sCT    sC    sN     9    1.67360   1.080     3
C8 CT N C 9 0.0 8.36800 1  sC8   sCT    sN    sC     9    8.36800   5.401     1
C8 CT N C 9 0.0 8.36800 2  sC8   sCT    sN    sC     9    8.36800   5.401     2
C8 CT N C 9 0.0 1.67360 3  sC8   sCT    sN    sC     9    1.67360   1.080     3
C CT C8 O3 9 180.0 4.18400 1   sC   sCT   sC8   sO3     9    4.18400   2.700     1
C CT C8 OH 9 180.0 3.76560 1   sC   sCT   sC8   sOH     9    3.76560   2.430     1
C CT CT C4 9 0.0 2.39074 1   sC   sCT   sCT   sC4     9    2.39074   1.543     1
C CT CT C4 9 180.0 1.49913 2   sC   sCT   sCT   sC4     9    1.49913   0.968     2
C CT CT C4 9 0.0 0.56400 3   sC   sCT   sCT   sC4     9    0.56400   0.364     3
C CT CT C5 9 0.0 0.71421 1   sC   sCT   sCT   sC5     9    0.71421   0.461     1
C CT CT C5 9 180.0 2.49241 2   sC   sCT   sCT   sC5     9    2.49241   1.609     2
C CT CT C5 9 0.0 0.49580 3   sC   sCT   sCT   sC5     9    0.49580   0.320     3
C CT CT C5 9 180.0 1.74556 4   sC   sCT   sCT   sC5     9    1.74556   1.127     4
C CT CT C5 9 0.0 0.43597 5   sC   sCT   sCT   sC5     9    0.43597   0.281     5
C CT CT C5 9 180.0 0.42142 6   sC   sCT   sCT   sC5     9    0.42142   0.272     6
C CT CT C* 9 0.0 1.21336 1   sC   sCT   sCT   sC*     9    1.21336   0.783     1
C CT CT C9 9 0.0 1.25520 1   sC   sCT   sCT   sC9     9    1.25520   0.810     1
C CT CT CA 9 0.0 2.17568 1   sC   sCT   sCT   sCA     9    2.17568   1.404     1
C CT CT CC 9 0.0 2.92880 1   sC   sCT   sCT   sCC     9    2.92880   1.890     1
C CT CT SH 9 180.0 0.66944 1   sC   sCT   sCT   sSH     9    0.66944   0.432     1
Cl CT CT Cl 9 180.0 1.88280 1  sCl   sCT   sCT   sCl     9    1.88280   1.215     1
CM CM C O 9 180.0 9.10020 2  sCM   sCM    sC    sO     9    9.10020   5.873     2
CM CM C O 9 0.0 1.25520 3  sCM   sCM    sC    sO     9    1.25520   0.810     3
C N C1 C 9 0.0 0.35267 1   sC    sN   sC1    sC     9    0.35267   0.228     1
C N C1 C 9 0.0 1.59541 2   sC    sN   sC1    sC     9    1.59541   1.030     2
C N C1 C 9 180.0 0.08381 3   sC    sN   sC1    sC     9    0.08381   0.054     3
C N C1 C 9 0.0 0.32396 4   sC    sN   sC1    sC     9    0.32396   0.209     4
C N C7 C 9 0.0 1.12968 2   sC    sN   sC7    sC     9    1.12968   0.729     2
C N C7 C 9 0.0 1.75728 3   sC    sN   sC7    sC     9    1.75728   1.134     3
C N CT C 9 180.0 0.14226 1   sC    sN   sCT    sC     9    0.14226   0.092     1
C N CT C 9 0.0 1.40164 2   sC    sN   sCT    sC     9    1.40164   0.905     2
C N CT C 9 0.0 2.27610 3   sC    sN   sCT    sC     9    2.27610   1.469     3
C N CT C 9 0.0 0.33472 4   sC    sN   sCT    sC     9    0.33472   0.216     4
CT C7 C N 9 0.0 0.83680 1  sCT   sC7    sC    sN     9    0.83680   0.540     1
CT C7 C N 9 0.0 0.83680 2  sCT   sC7    sC    sN     9    0.83680   0.540     2
CT C7 C N 9 0.0 1.67360 3  sCT   sC7    sC    sN     9    1.67360   1.080     3
CT C7 N C 9 0.0 8.36800 1  sCT   sC7    sN    sC     9    8.36800   5.401     1
CT C7 N C 9 0.0 8.36800 2  sCT   sC7    sN    sC     9    8.36800   5.401     2
CT C7 N C 9 0.0 1.67360 3  sCT   sC7    sN    sC     9    1.67360   1.080     3
CT C9 C O2 9 180.0 2.51040 2  sCT   sC9    sC   sO2     9    2.51040   1.620     2
CT C9 C O 9 180.0 2.51040 2  sCT   sC9    sC    sO     9    2.51040   1.620     2
CT C9 C OB 9 180.0 2.51040 2  sCT   sC9    sC   sOB     9    2.51040   1.620     2
CT CM CM CT 9 180.0 27.82360 2  sCT   sCM   sCM   sCT     9    27.82360  17.958    2
CT CM CM CT 9 180.0 7.94960 1  sCT   sCM   sCM   sCT     9    7.94960   5.131     1
CT CT C4 CT 9 0.0 0.62760 3  sCT   sCT   sC4   sCT     9    0.62760   0.405     3
CT CT C5 O 9 180.0 4.18400 1  sCT   sCT   sC5    sO     9    4.18400   2.700     1
CT CT C6 O2 9 180.0 0.77822 4  sCT   sCT   sC6   sO2     9    0.77822   0.502     4
CT CT C6 O2 9 180.0 1.48114 6  sCT   sCT   sC6   sO2     9    1.48114   0.956     6
CT CT C6 O2 9 180.0 3.65263 2  sCT   sCT   sC6   sO2     9    3.65263   2.357     2
CT CT C* CW 9 0.0 5.02080 1  sCT   sCT   sC*   sCW     9    5.02080   3.241     1
CT CT C N 9 0.0 0.83680 1  sCT   sCT    sC    sN     9    0.83680   0.540     1
CT CT C N 9 0.0 0.83680 2  sCT   sCT    sC    sN     9    0.83680   0.540     2
CT CT C N 9 0.0 1.67360 3  sCT   sCT    sC    sN     9    1.67360   1.080     3
CT CT CT C3 9 0.0 0.62760 3  sCT   sCT   sCT   sC3     9    0.62760   0.405     3
CT CT CT C7 9 0.0 0.75312 3  sCT   sCT   sCT   sC7     9    0.75312   0.486     3
CT CT CT C7 9 180.0 0.83680 1  sCT   sCT   sCT   sC7     9    0.83680   0.540     1
CT CT CT C7 9 180.0 1.04600 2  sCT   sCT   sCT   sC7     9    1.04600   0.675     2
CT CT CT CT 9 0.0 0.62760 3  sCT   sCT   sCT   sCT     9    0.62760   0.405     3
CT CT N C 9 0.0 1.67360 3  sCT   sCT    sN    sC     9    1.67360   1.080     3
CT CT N C 9 0.0 8.36800 1  sCT   sCT    sN    sC     9    8.36800   5.401     1
CT CT N C 9 0.0 8.36800 2  sCT   sCT    sN    sC     9    8.36800   5.401     2
CT CT OS C 9 0.0 1.60247 3  sCT   sCT   sOS    sC     9    1.60247   1.034     3
CT CT OS C 9 180.0 3.34720 1  sCT   sCT   sOS    sC     9    3.34720   2.160     1
CT CT OS CT 9 0.0 1.60247 3  sCT   sCT   sOS   sCT     9    1.60247   1.034     3
CT CT OS CT 9 180.0 0.41840 2  sCT   sCT   sOS   sCT     9    0.41840   0.270     2
CT CT SH HS 9 0.0 0.83680 3  sCT   sCT   sSH   sHS     9    0.83680   0.540     3
CT CT SH HS 9 0.0 2.09200 2  sCT   sCT   sSH   sHS     9    2.09200   1.350     2
CT OS CT N* 9 0.0 1.60247 3  sCT   sOS   sCT   sN*     9    1.60247   1.034     3
CT OS CT N* 9 0.0 2.71960 2  sCT   sOS   sCT   sN*     9    2.71960   1.755     2
CT OS CT OS 9 0.0 0.41840 3  sCT   sOS   sCT   sOS     9    0.41840   0.270     3
CT OS CT OS 9 180.0 3.55640 2  sCT   sOS   sCT   sOS     9    3.55640   2.295     2
CT OS CT OS 9 180.0 5.64840 1  sCT   sOS   sCT   sOS     9    5.64840   3.646     1
CT S S CT 9 0.0 14.64400 2  sCT    sS    sS   sCT     9    14.64400  9.452     2
CT S S CT 9 0.0 2.51040 3  sCT    sS    sS   sCT     9    2.51040   1.620     3
F CT CT F 9 180.0 5.02080 1   sF   sCT   sCT    sF     9    5.02080   3.241     1
H1 C1 C O 9 0.0 3.34720 1  sH1   sC1    sC    sO     9    3.34720   2.160     1
H1 C1 C O 9 180.0 0.33472 3  sH1   sC1    sC    sO     9    0.33472   0.216     3
H1 C7 C O 9 0.0 3.34720 1  sH1   sC7    sC    sO     9    3.34720   2.160     1
H1 C7 C O 9 180.0 0.33472 3  sH1   sC7    sC    sO     9    0.33472   0.216     3
H1 CT C O 9 0.0 3.34720 1  sH1   sCT    sC    sO     9    3.34720   2.160     1
H1 CT C O 9 180.0 0.33472 3  sH1   sCT    sC    sO     9    0.33472   0.216     3
H1 C1 C OB 9 0.0 3.34720 1  sH1   sC1    sC   sOB     9    3.34720   2.160     1
H1 C1 C OB 9 180.0 0.33472 3  sH1   sC1    sC   sOB     9    0.33472   0.216     3
H1 C7 C OB 9 0.0 3.34720 1  sH1   sC7    sC   sOB     9    3.34720   2.160     1
H1 C7 C OB 9 180.0 0.33472 3  sH1   sC7    sC   sOB     9    0.33472   0.216     3
H1 CT C OB 9 0.0 3.34720 1  sH1   sCT    sC   sOB     9    3.34720   2.160     1
H1 CT C OB 9 180.0 0.33472 3  sH1   sCT    sC   sOB     9    0.33472   0.216     3
H1 CT CT Br 9 0.0 2.30120 1  sH1   sCT   sCT   sBr     9    2.30120   1.485     1
H1 CT CT Cl 9 0.0 1.04600 1  sH1   sCT   sCT   sCl     9    1.04600   0.675     1
H1 CT CT F 9 0.0 0.79496 1  sH1   sCT   sCT    sF     9    0.79496   0.513     1
H1 CT CT OH 9 0.0 1.04600 1  sH1   sCT   sCT   sOH     9    1.04600   0.675     1
H1 CT CT OS 9 0.0 1.04600 1  sH1   sCT   sCT   sOS     9    1.04600   0.675     1
HC C3 CT CT 9 0.0 0.66944 3  sHC   sC3   sCT   sCT     9    0.66944   0.432     3
HC C4 CT CT 9 0.0 0.66944 3  sHC   sC4   sCT   sCT     9    0.66944   0.432     3
HC C4 CT HC 9 0.0 0.62760 3  sHC   sC4   sCT   sHC     9    0.62760   0.405     3
HC CT C3 HC 9 0.0 0.62760 3  sHC   sCT   sC3   sHC     9    0.62760   0.405     3
HC CT C4 CT 9 0.0 0.66944 3  sHC   sCT   sC4   sCT     9    0.66944   0.432     3
HC CT C5 O 9 0.0 3.34720 1  sHC   sCT   sC5    sO     9    3.34720   2.160     1
HC CT C5 O 9 180.0 0.33472 3  sHC   sCT   sC5    sO     9    0.33472   0.216     3
HC CT CM CM 9 0.0 4.81160 1  sHC   sCT   sCM   sCM     9    4.81160   3.106     1
HC CT CM CM 9 180.0 1.58992 3  sHC   sCT   sCM   sCM     9    1.58992   1.026     3
HC CT C O 9 0.0 3.34720 1  sHC   sCT    sC    sO     9    3.34720   2.160     1
HC CT C O 9 180.0 0.33472 3  sHC   sCT    sC    sO     9    0.33472   0.216     3
HC CT C OB 9 0.0 3.34720 1  sHC   sCT    sC   sOB     9    3.34720   2.160     1
HC CT C OB 9 180.0 0.33472 3  sHC   sCT    sC   sOB     9    0.33472   0.216     3
HC CT CT Br 9 0.0 2.30120 1  sHC   sCT   sCT   sBr     9    2.30120   1.485     1
HC CT CT C3 9 0.0 0.66944 3  sHC   sCT   sCT   sC3     9    0.66944   0.432     3
HC CT CT C4 9 0.0 0.66944 3  sHC   sCT   sCT   sC4     9    0.66944   0.432     3
HC CT CT C7 9 0.0 0.66944 3  sHC   sCT   sCT   sC7     9    0.66944   0.432     3
HC CT CT Cl 9 0.0 1.04600 1  sHC   sCT   sCT   sCl     9    1.04600   0.675     1
HC CT CT CT 9 0.0 0.66944 3  sHC   sCT   sCT   sCT     9    0.66944   0.432     3
HC CT CT F 9 0.0 0.79496 1  sHC   sCT   sCT    sF     9    0.79496   0.513     1
HC CT CT HC 9 0.0 0.62760 3  sHC   sCT   sCT   sHC     9    0.62760   0.405     3
HC CT CT OH 9 0.0 1.04600 1  sHC   sCT   sCT   sOH     9    1.04600   0.675     1
HC CT CT OS 9 0.0 1.04600 1  sHC   sCT   sCT   sOS     9    1.04600   0.675     1
H N C5 O 9 0.0 8.36800 1   sH    sN   sC5    sO     9    8.36800   5.401     1
H N C5 O 9 180.0 10.46000 2   sH    sN   sC5    sO     9    10.46000  6.751     2
H N C O 9 0.0 8.36800 1   sH    sN    sC    sO     9    8.36800   5.401     1
H N C O 9 180.0 10.46000 2   sH    sN    sC    sO     9    10.46000  6.751     2
HB N C OB 9 0.0 8.36800 1  sHB    sN    sC   sOB     9    8.36800   5.401     1
HB N C OB 9 180.0 10.46000 2  sHB    sN    sC   sOB     9    10.46000  6.751     2
HO O3 C8 CT 9 0.0 0.35982 1  sHO   sO3   sC8   sCT     9    0.35982   0.232     1
HO O3 C8 CT 9 0.0 0.41840 3  sHO   sO3   sC8   sCT     9    0.41840   0.270     3
HO O3 C8 CT 9 180.0 0.68199 2  sHO   sO3   sC8   sCT     9    0.68199   0.440     2
HO O3 C8 H1 9 0.0 0.41840 3  sHO   sO3   sC8   sH1     9    0.41840   0.270     3
HO OH C8 CT 9 0.0 0.25104 2  sHO   sOH   sC8   sCT     9    0.25104   0.162     2
HO OH C8 CT 9 0.0 0.83680 3  sHO   sOH   sC8   sCT     9    0.83680   0.540     3
HO OH C8 CT 9 0.0 3.13800 1  sHO   sOH   sC8   sCT     9    3.13800   2.025     1
HO OH C O 9 0.0 7.94960 1  sHO   sOH    sC    sO     9    7.94960   5.131     1
HO OH C O 9 180.0 9.62320 2  sHO   sOH    sC    sO     9    9.62320   6.211     2
HO OH CT CT 9 0.0 0.66944 3  sHO   sOH   sCT   sCT     9    0.66944   0.432     3
HO OH CT CT 9 0.0 1.04600 1  sHO   sOH   sCT   sCT     9    1.04600   0.675     1
N3 CT CT C3 9 0.0 0.81630 1  sN3   sCT   sCT   sC3     9    0.81630   0.527     1
N3 CT CT C3 9 180.0 3.53925 2  sN3   sCT   sCT   sC3     9    3.53925   2.284     2
N3 CT CT C6 9 180.0 11.02568 1  sN3   sCT   sCT   sC6     9    11.02568  7.116     1
N3 CT CT C6 9 180.0 4.98022 2  sN3   sCT   sCT   sC6     9    4.98022   3.214     2
N3 CT CT C6 9 180.0 0.02845 3  sN3   sCT   sCT   sC6     9    0.02845   0.018     3
N3 CT CT C6 9 0.0 1.76858 4  sN3   sCT   sCT   sC6     9    1.76858   1.141     4
N3 CT CT C6 9 0.0 0.96943 5  sN3   sCT   sCT   sC6     9    0.96943   0.626     5
N3 CT CT C6 9 180.0 0.89009 6  sN3   sCT   sCT   sC6     9    0.89009   0.574     6
N C1 C N 9 180.0 2.69445 1   sN   sC1    sC    sN     9    2.69445   1.739     1
N C1 C N 9 180.0 6.68666 2   sN   sC1    sC    sN     9    6.68666   4.316     2
N C1 C N 9 180.0 1.67111 3   sN   sC1    sC    sN     9    1.67111   1.079     3
N C1 C N 9 0.0 0.31419 4   sN   sC1    sC    sN     9    0.31419   0.203     4
N C5 CT CT 9 180.0 4.37772 1   sN   sC5   sCT   sCT     9    4.37772   2.825     1
N C5 CT CT 9 180.0 0.75730 2   sN   sC5   sCT   sCT     9    0.75730   0.489     2
N C5 CT CT 9 180.0 0.14811 3   sN   sC5   sCT   sCT     9    0.14811   0.096     3
N C5 CT CT 9 0.0 0.41966 4   sN   sC5   sCT   sCT     9    0.41966   0.271     4
N C5 CT CT 9 0.0 0.54308 5   sN   sC5   sCT   sCT     9    0.54308   0.351     5
N C5 CT CT 9 180.0 0.44373 6   sN   sC5   sCT   sCT     9    0.44373   0.286     6
N C7 C N 9 180.0 1.88280 1   sN   sC7    sC    sN     9    1.88280   1.215     1
N C7 C N 9 180.0 6.61072 2   sN   sC7    sC    sN     9    6.61072   4.267     2
N C7 C N 9 180.0 2.30120 3   sN   sC7    sC    sN     9    2.30120   1.485     3
N CT C8 CT 9 0.0 0.25104 1   sN   sCT   sC8   sCT     9    0.25104   0.162     1
N CT C8 CT 9 180.0 2.09200 2   sN   sCT   sC8   sCT     9    2.09200   1.350     2
N CT C8 CT 9 0.0 0.62760 3   sN   sCT   sC8   sCT     9    0.62760   0.405     3
N CT C8 CT 9 180.0 0.27196 4   sN   sCT   sC8   sCT     9    0.27196   0.176     4
N CT C8 O3 9 180.0 0.33472 1   sN   sCT   sC8   sO3     9    0.33472   0.216     1
N CT C8 OH 9 180.0 1.04600 1   sN   sCT   sC8   sOH     9    1.04600   0.675     1
N CT C N 9 360.0 0.82425 1   sN   sCT    sC    sN     9    0.82425   0.532     1
N CT C N 9 180.0 6.04588 2   sN   sCT    sC    sN     9    6.04588   3.902     2
N CT C N 9 180.0 2.00414 3   sN   sCT    sC    sN     9    2.00414   1.294     3
N CT C N 9 360.0 0.07991 4   sN   sCT    sC    sN     9    0.07991   0.052     4
N CT C N 9 360.0 0.01674 5   sN   sCT    sC    sN     9    0.01674   0.011     5
N CT CT C3 9 0.0 0.81630 1   sN   sCT   sCT   sC3     9    0.81630   0.527     1
N CT CT C3 9 180.0 3.53925 2   sN   sCT   sCT   sC3     9    3.53925   2.284     2
N CT CT C5 9 180.0 2.63592 1   sN   sCT   sCT   sC5     9    2.63592   1.701     1
N CT CT C6 9 180.0 12.05410 1   sN   sCT   sCT   sC6     9    12.05410  7.780     1
N CT CT C6 9 180.0 5.06682 2   sN   sCT   sCT   sC6     9    5.06682   3.270     2
N CT CT C6 9 0.0 0.25941 3   sN   sCT   sCT   sC6     9    0.25941   0.167     3
N CT CT C6 9 0.0 1.02508 4   sN   sCT   sCT   sC6     9    1.02508   0.662     4
N CT CT C6 9 0.0 0.54810 5   sN   sCT   sCT   sC6     9    0.54810   0.354     5
N CT CT C6 9 180.0 0.59413 6   sN   sCT   sCT   sC6     9    0.59413   0.383     6
N CT CT C9 9 0.0 0.41840 1   sN   sCT   sCT   sC9     9    0.41840   0.270     1
N CT CT CC 9 180.0 1.67360 1   sN   sCT   sCT   sCC     9    1.67360   1.080     1
N CT CT SH 9 180.0 2.30120 1   sN   sCT   sCT   sSH     9    2.30120   1.485     1
N CT CT SH 9 180.0 2.63592 2   sN   sCT   sCT   sSH     9    2.63592   1.701     2
N CT CT SH 9 180.0 0.25104 3   sN   sCT   sCT   sSH     9    0.25104   0.162     3
N CT CT SH 9 180.0 0.12552 4   sN   sCT   sCT   sSH     9    0.12552   0.081     4
O C OS CT 9 180.0 5.85760 1   sO    sC   sOS   sCT     9    5.85760   3.781     1
O C OS CT 9 180.0 11.29680 2   sO    sC   sOS   sCT     9    11.29680  7.291     2
OH CT CT OH 9 0.0 0.60250 3  sOH   sCT   sCT   sOH     9    0.60250   0.389     3
OH CT CT OH 9 0.0 4.91620 2  sOH   sCT   sCT   sOH     9    4.91620   3.173     2
OH P OS CT 9 0.0 1.04600 3  sOH    sP   sOS   sCT     9    1.04600   0.675     3
OH P OS CT 9 0.0 5.02080 2  sOH    sP   sOS   sCT     9    5.02080   3.241     2
OS CT CT OH 9 0.0 0.60250 3  sOS   sCT   sCT   sOH     9    0.60250   0.389     3
OS CT CT OH 9 0.0 4.91620 2  sOS   sCT   sCT   sOH     9    4.91620   3.173     2
OS CT CT OS 9 0.0 4.91620 2  sOS   sCT   sCT   sOS     9    4.91620   3.173     2
OS CT CT OS 9 0.0 0.60250 3  sOS   sCT   sCT   sOS     9    0.60250   0.389     3
OS CT N* CK 9 0.0 10.46000 1  sOS   sCT   sN*   sCK     9    10.46000  6.751     1
OS CT N* CM 9 0.0 10.46000 1  sOS   sCT   sN*   sCM     9    10.46000  6.751     1
OS P OS CT 9 0.0 5.02080 2  sOS    sP   sOS   sCT     9    5.02080   3.241     2
OS P OS CT 9 0.0 1.04600 3  sOS    sP   sOS   sCT     9    1.04600   0.675     3
N CT CT CA 9 0.0 0.00000 0   sN   sCT   sCT   sCA     9    0.00000   0.000     0
N CT CT C* 9 0.0 0.00000 0   sN   sCT   sCT   sC*     9    0.00000   0.000     0
CT CT C9 S 9 0.0 0.00000 0  sCT   sCT   sC9    sS     9    0.00000   0.000     0
CT CT C9 CT 9 0.0 0.00000 0  sCT   sCT   sC9   sCT     9    0.00000   0.000     0
X C1 N3 X 9 0.0 0.65084 3    X   sC1   sN3     X     9    0.65084   0.420     3
X C5 N X 9 180.0 10.46000 2    X   sC5    sN     X     9    10.46000  6.751     2
X C7 CT X 9 0.0 0.65084 3    X   sC7   sCT     X     9    0.65084   0.420     3
X C7 N3 X 9 0.0 0.65084 3    X   sC7   sN3     X     9    0.65084   0.420     3
X C8 O3 X 9 0.0 0.69873 3    X   sC8   sO3     X     9    0.69873   0.451     3
X C8 OH X 9 0.0 0.69873 3    X   sC8   sOH     X     9    0.69873   0.451     3
X C9 S X 9 0.0 1.39327 3    X   sC9    sS     X     9    1.39327   0.899     3
X CA CA X 9 180.0 15.16700 2    X   sCA   sCA     X     9    15.16700  9.789     2
X CA CB X 9 180.0 14.64400 2    X   sCA   sCB     X     9    14.64400  9.452     2
X CA CM X 9 180.0 10.66920 2    X   sCA   sCM     X     9    10.66920  6.886     2
X CA CN X 9 180.0 15.16700 2    X   sCA   sCN     X     9    15.16700  9.789     2
X CA N2 X 9 180.0 10.04160 2    X   sCA   sN2     X     9    10.04160  6.481     2
X CA NA X 9 180.0 6.27600 2    X   sCA   sNA     X     9    6.27600   4.051     2
X CA NC X 9 180.0 20.08320 2    X   sCA   sNC     X     9    20.08320  12.962    2
X CA OH X 9 180.0 3.76560 2    X   sCA   sOH     X     9    3.76560   2.430     2
X CB CB X 9 180.0 22.80280 2    X   sCB   sCB     X     9    22.80280  14.717    2
X CB CN X 9 180.0 12.55200 2    X   sCB   sCN     X     9    12.55200  8.101     2
X CB NB X 9 180.0 10.66920 2    X   sCB   sNB     X     9    10.66920  6.886     2
X CB NC X 9 180.0 17.36360 2    X   sCB   sNC     X     9    17.36360  11.207    2
X CB N* X 9 180.0 6.90360 2    X   sCB   sN*     X     9    6.90360   4.456     2
X C CA X 9 180.0 15.16700 2    X    sC   sCA     X     9    15.16700  9.789     2
X C CB X 9 180.0 12.55200 2    X    sC   sCB     X     9    12.55200  8.101     2
X C* CB X 9 180.0 7.00820 2    X   sC*   sCB     X     9    7.00820   4.523     2
X CC CV X 9 180.0 21.54760 2    X   sCC   sCV     X     9    21.54760  13.907    2
X CC CW X 9 180.0 22.48900 2    X   sCC   sCW     X     9    22.48900  14.515    2
X C CM X 9 180.0 9.10020 2    X    sC   sCM     X     9    9.10020   5.873     2
X CC NA X 9 180.0 5.85760 2    X   sCC   sNA     X     9    5.85760   3.781     2
X CC NB X 9 180.0 10.04160 2    X   sCC   sNB     X     9    10.04160  6.481     2
X C* CW X 9 180.0 27.30060 2    X   sC*   sCW     X     9    27.30060  17.620    2
X C C X 9 180.0 15.16700 2    X    sC    sC     X     9    15.16700  9.789     2
X CK NB X 9 180.0 41.84000 2    X   sCK   sNB     X     9    41.84000  27.004    2
X CK N* X 9 180.0 7.11280 2    X   sCK   sN*     X     9    7.11280   4.591     2
X CM CM X 9 180.0 27.82360 2    X   sCM   sCM     X     9    27.82360  17.958    2
X CM N* X 9 180.0 7.74040 2    X   sCM   sN*     X     9    7.74040   4.996     2
X CM OS X 9 180.0 4.39320 2    X   sCM   sOS     X     9    4.39320   2.835     2
X C NA X 9 180.0 5.64840 2    X    sC   sNA     X     9    5.64840   3.646     2
X C NC X 9 180.0 16.73600 2    X    sC   sNC     X     9    16.73600  10.802    2
X CN NA X 9 180.0 6.38060 2    X   sCN   sNA     X     9    6.38060   4.118     2
X C N X 9 180.0 10.46000 2    X    sC    sN     X     9    10.46000  6.751     2
X C N* X 9 180.0 6.06680 2    X    sC   sN*     X     9    6.06680   3.916     2
X C OH X 9 180.0 9.62320 2    X    sC   sOH     X     9    9.62320   6.211     2
X C OS X 9 180.0 11.29680 2    X    sC   sOS     X     9    11.29680  7.291     2
X C O X 9 180.0 11.71520 2    X    sC    sO     X     9    11.71520  7.561     2
X C OB X 9 180.0 11.71520 2    X    sC   sOB     X     9    11.71520  7.561     2
X CQ NC X 9 180.0 28.45120 2    X   sCQ   sNC     X     9    28.45120  18.363    2
X CR NA X 9 180.0 9.72780 2    X   sCR   sNA     X     9    9.72780   6.279     2
X CR NB X 9 180.0 20.92000 2    X   sCR   sNB     X     9    20.92000  13.502    2
X CT C8 X 9 0.0 0.64852 3    X   sCT   sC8     X     9    0.64852   0.419     3
X CT C9 X 9 0.0 0.64852 3    X   sCT   sC9     X     9    0.64852   0.419     3
X CT CT X 9 0.0 0.65084 3    X   sCT   sCT     X     9    0.65084   0.420     3
X CT N3 X 9 0.0 0.65084 3    X   sCT   sN3     X     9    0.65084   0.420     3
X CT OH X 9 0.0 0.69733 3    X   sCT   sOH     X     9    0.69733   0.450     3
X CT OS X 9 0.0 1.60387 3    X   sCT   sOS     X     9    1.60387   1.035     3
X CT SH X 9 0.0 1.04600 3    X   sCT   sSH     X     9    1.04600   0.675     3
X CT S X 9 0.0 1.39467 3    X   sCT    sS     X     9    1.39467   0.900     3
X CV NB X 9 180.0 10.04160 2    X   sCV   sNB     X     9    10.04160  6.481     2
X CW NA X 9 180.0 6.27600 2    X   sCW   sNA     X     9    6.27600   4.051     2
X OH P X 9 0.0 1.04600 3    X   sOH    sP     X     9    1.04600   0.675     3
X OS P X 9 0.0 1.04600 3    X   sOS    sP     X     9    1.04600   0.675     3
X C1 N X 9 0.0 0.00000 0    X   sC1    sN     X     9    0.00000   0.000     0
X C C1 X 9 0.0 0.00000 0    X    sC   sC1     X     9    0.00000   0.000     0
X C C9 X 9 0.0 0.00000 0    X    sC   sC9     X     9    0.00000   0.000     0
X C CT X 9 0.0 0.00000 0    X    sC   sCT     X     9    0.00000   0.000     0
X CA CT X 9 0.0 0.00000 0    X   sCA   sCT     X     9    0.00000   0.000     0
X CC CT X 9 0.0 0.00000 0    X   sCC   sCT     X     9    0.00000   0.000     0
X CM CT X 9 0.0 0.00000 0    X   sCM   sCT     X     9    0.00000   0.000     0
X CT N X 9 0.0 0.00000 0    X   sCT    sN     X     9    0.00000   0.000     0
X CT N* X 9 0.0 0.00000 0    X   sCT   sN*     X     9    0.00000   0.000     0
X CT N2 X 9 0.0 0.00000 0    X   sCT   sN2     X     9    0.00000   0.000     0
X C* CT X 9 0.0 0.00000 0    X   sC*   sCT     X     9    0.00000   0.000     0
X C7 N X 9 0.0 0.00000 0    X   sC7    sN     X     9    0.00000   0.000     0
X C C7 X 9 0.0 0.00000 0    X    sC   sC7     X     9    0.00000   0.000     0
X C5 CT X 9 0.0 0.00000 0    X   sC5   sCT     X     9    0.00000   0.000     0
X C6 CT X 9 0.0 0.00000 0    X   sC6   sCT     X     9    0.00000   0.000     0
C C1 N O 4 180.0 4.60240 2   sC   sC1    sN    sO     4    4.60240   2.761     2
C C1 N OB 4 180.0 4.60240 2   sC   sC1    sN   sOB     4    4.60240   2.761     2
C C1 N H 4 180.0 4.60240 2   sC   sC1    sN    sH     4    4.60240   2.761     2
C C1 N HB 4 180.0 4.60240 2   sC   sC1    sN   sHB     4    4.60240   2.761     2
C9 O C OH 4 180.0 43.93200 2  sC9    sO    sC   sOH     4    43.93200  26.359    2
CB CK N* CT 4 180.0 4.18400 2  sCB   sCK   sN*   sCT     4    4.18400   2.510     2
C CM N* CT 4 180.0 4.18400 2   sC   sCM   sN*   sCT     4    4.18400   2.510     2
CT O C OH 4 180.0 43.93200 2  sCT    sO    sC   sOH     4    43.93200  26.359    2
CT CV CC NA 4 180.0 4.60240 2  sCT   sCV   sCC   sNA     4    4.60240   2.761     2
CT CW CC NB 4 180.0 4.60240 2  sCT   sCW   sCC   sNB     4    4.60240   2.761     2
CT CC CW NB 4 180.0 4.60240 2  sCT   sCC   sCW   sNB     4    4.60240   2.761     2
CT CW CC NA 4 180.0 4.60240 2  sCT   sCW   sCC   sNA     4    4.60240   2.761     2
CB CT C* CW 4 180.0 4.60240 2  sCB   sCT   sC*   sCW     4    4.60240   2.761     2
CA CA CA CT 4 180.0 4.60240 2  sCA   sCA   sCA   sCT     4    4.60240   2.761     2
C CM CM CT 4 180.0 4.60240 2   sC   sCM   sCM   sCT     4    4.60240   2.761     2
CM N2 CA NC 4 180.0 4.60240 2  sCM   sN2   sCA   sNC     4    4.60240   2.761     2
CB N2 CA NC 4 180.0 4.60240 2  sCB   sN2   sCA   sNC     4    4.60240   2.761     2
N2 NA CA NC 4 180.0 4.60240 2  sN2   sNA   sCA   sNC     4    4.60240   2.761     2
CA CA C OH 4 180.0 4.60240 2  sCA   sCA    sC   sOH     4    4.60240   2.761     2
CA CA CA OH 4 180.0 4.60240 2  sCA   sCA   sCA   sOH     4    4.60240   2.761     2
H5 O C OH 4 180.0 4.60240 2  sH5    sO    sC   sOH     4    4.60240   2.761     2
H5 O C OS 4 180.0 4.60240 2  sH5    sO    sC   sOS     4    4.60240   2.761     2
CM CT CM HA 4 180.0 4.60240 2  sCM   sCT   sCM   sHA     4    4.60240   2.761     2
Br CA CA CA 4 180.0 4.60240 2  sBr   sCA   sCA   sCA     4    4.60240   2.761     2
CM H4 C O 4 180.0 4.60240 2  sCM   sH4    sC    sO     4    4.60240   2.761     2
C CT N H 4 180.0 4.60240 2   sC   sCT    sN    sH     4    4.60240   2.761     2
C CT N HB 4 180.0 4.60240 2   sC   sCT    sN   sHB     4    4.60240   2.761     2
C CT N O 4 180.0 4.60240 2   sC   sCT    sN    sO     4    4.60240   2.761     2
C C7 N O 4 180.0 4.60240 2   sC   sC7    sN    sO     4    4.60240   2.761     2
C CT N OB 4 180.0 4.60240 2   sC   sCT    sN   sOB     4    4.60240   2.761     2
C C7 N OB 4 180.0 4.60240 2   sC   sC7    sN   sOB     4    4.60240   2.761     2
C C7 N H 4 180.0 4.60240 2   sC   sC7    sN    sH     4    4.60240   2.761     2
C C7 N HB 4 180.0 4.60240 2   sC   sC7    sN   sHB     4    4.60240   2.761     2
C5 CT N O 4 180.0 4.60240 2  sC5   sCT    sN    sO     4    4.60240   2.761     2
C5 CT N OB 4 180.0 4.60240 2  sC5   sCT    sN   sOB     4    4.60240   2.761     2
C5 CT N H 4 180.0 4.60240 2  sC5   sCT    sN    sH     4    4.60240   2.761     2
C5 CT N HB 4 180.0 4.60240 2  sC5   sCT    sN   sHB     4    4.60240   2.761     2
X CT N C1 4 180.0 4.18400 2    X   sCT    sN   sC1     4    4.18400   2.510     2
X CT N C7 4 180.0 4.18400 2    X   sCT    sN   sC7     4    4.18400   2.510     2
X O2 C6 O2 4 180.0 43.93200 2    X   sO2   sC6   sO2     4    43.93200  26.359    2
X O2 C O2 4 180.0 43.93200 2    X   sO2    sC   sO2     4    43.93200  26.359    2
X N2 CA N2 4 180.0 43.93200 2    X   sN2   sCA   sN2     4    43.93200  26.359    2
X CT N CT 4 180.0 4.18400 2    X   sCT    sN   sCT     4    4.18400   2.510     2
X X C O 4 180.0 43.93200 2    X     X    sC    sO     4    43.93200  26.359    2
X X C OB 4 180.0 43.93200 2    X     X    sC   sOB     4    43.93200  26.359    2
X X N H 4 180.0 4.18400 2    X     X    sN    sH     4    4.18400   2.510     2
X X N2 H 4 180.0 4.18400 2    X     X   sN2    sH     4    4.18400   2.510     2
X X NA H 4 180.0 4.18400 2    X     X   sNA    sH     4    4.18400   2.510     2
X X CA HA 4 180.0 4.60240 2    X     X   sCA   sHA     4    4.60240   2.761     2
X X CW H4 4 180.0 4.60240 2    X     X   sCW   sH4     4    4.60240   2.761     2
X X CR H5 4 180.0 4.60240 2    X     X   sCR   sH5     4    4.60240   2.761     2
X X CV H4 4 180.0 4.60240 2    X     X   sCV   sH4     4    4.60240   2.761     2
X X CQ H5 4 180.0 4.60240 2    X     X   sCQ   sH5     4    4.60240   2.761     2
X X CK H5 4 180.0 4.60240 2    X     X   sCK   sH5     4    4.60240   2.761     2
X X CM H4 4 180.0 4.60240 2    X     X   sCM   sH4     4    4.60240   2.761     2
X X CM HA 4 180.0 4.60240 2    X     X   sCM   sHA     4    4.60240   2.761     2
X X CA H4 4 180.0 4.60240 2    X     X   sCA   sH4     4    4.60240   2.761     2
X X CA H5 4 180.0 4.60240 2    X     X   sCA   sH5     4    4.60240   2.761     2
X X C5 O 4 180.0 43.93200 2    X     X   sC5    sO     4    43.93200  26.359    2
C8 CT C N 9 0.0 0.83680 1  sC8   sCT    sC    sN     9    0.83680   0.502     1
C8 CT C N 9 0.0 0.83680 2  sC8   sCT    sC    sN     9    0.83680   0.502     2
C8 CT C N 9 0.0 1.67360 3  sC8   sCT    sC    sN     9    1.67360   1.004     3
C8 CT N C 9 0.0 8.36800 1  sC8   sCT    sN    sC     9    8.36800   5.021     1
C8 CT N C 9 0.0 8.36800 2  sC8   sCT    sN    sC     9    8.36800   5.021     2
C8 CT N C 9 0.0 1.67360 3  sC8   sCT    sN    sC     9    1.67360   1.004     3
C CT C8 O3 9 180.0 4.18400 1   sC   sCT   sC8   sO3     9    4.18400   2.510     1
C CT C8 OH 9 180.0 3.76560 1   sC   sCT   sC8   sOH     9    3.76560   2.259     1
C CT CT C4 9 0.0 2.39074 1   sC   sCT   sCT   sC4     9    2.39074   1.434     1
C CT CT C4 9 180.0 1.49913 2   sC   sCT   sCT   sC4     9    1.49913   0.899     2
C CT CT C4 9 0.0 0.56400 3   sC   sCT   sCT   sC4     9    0.56400   0.338     3
C CT CT C5 9 0.0 0.71421 1   sC   sCT   sCT   sC5     9    0.71421   0.429     1
C CT CT C5 9 180.0 2.49241 2   sC   sCT   sCT   sC5     9    2.49241   1.495     2
C CT CT C5 9 0.0 0.49580 3   sC   sCT   sCT   sC5     9    0.49580   0.297     3
C CT CT C5 9 180.0 1.74556 4   sC   sCT   sCT   sC5     9    1.74556   1.047     4
C CT CT C5 9 0.0 0.43597 5   sC   sCT   sCT   sC5     9    0.43597   0.262     5
C CT CT C5 9 180.0 0.42142 6   sC   sCT   sCT   sC5     9    0.42142   0.253     6
C CT CT C* 9 0.0 1.21336 1   sC   sCT   sCT   sC*     9    1.21336   0.728     1
C CT CT C9 9 0.0 1.25520 1   sC   sCT   sCT   sC9     9    1.25520   0.753     1
C CT CT CA 9 0.0 2.17568 1   sC   sCT   sCT   sCA     9    2.17568   1.305     1
C CT CT CC 9 0.0 2.92880 1   sC   sCT   sCT   sCC     9    2.92880   1.757     1
C CT CT SH 9 180.0 0.66944 1   sC   sCT   sCT   sSH     9    0.66944   0.402     1
Cl CT CT Cl 9 180.0 1.88280 1  sCl   sCT   sCT   sCl     9    1.88280   1.130     1
CM CM C O 9 180.0 9.10020 2  sCM   sCM    sC    sO     9    9.10020   5.460     2
CM CM C O 9 0.0 1.25520 3  sCM   sCM    sC    sO     9    1.25520   0.753     3
C N C1 C 9 0.0 0.35267 1   sC    sN   sC1    sC     9    0.35267   0.212     1
C N C1 C 9 0.0 1.59541 2   sC    sN   sC1    sC     9    1.59541   0.957     2
C N C1 C 9 180.0 0.08381 3   sC    sN   sC1    sC     9    0.08381   0.050     3
C N C1 C 9 0.0 0.32396 4   sC    sN   sC1    sC     9    0.32396   0.194     4
C N C7 C 9 0.0 1.12968 2   sC    sN   sC7    sC     9    1.12968   0.678     2
C N C7 C 9 0.0 1.75728 3   sC    sN   sC7    sC     9    1.75728   1.054     3
C N CT C 9 180.0 0.14226 1   sC    sN   sCT    sC     9    0.14226   0.085     1
C N CT C 9 0.0 1.40164 2   sC    sN   sCT    sC     9    1.40164   0.841     2
C N CT C 9 0.0 2.27610 3   sC    sN   sCT    sC     9    2.27610   1.366     3
C N CT C 9 0.0 0.33472 4   sC    sN   sCT    sC     9    0.33472   0.201     4
CT C7 C N 9 0.0 0.83680 1  sCT   sC7    sC    sN     9    0.83680   0.502     1
CT C7 C N 9 0.0 0.83680 2  sCT   sC7    sC    sN     9    0.83680   0.502     2
CT C7 C N 9 0.0 1.67360 3  sCT   sC7    sC    sN     9    1.67360   1.004     3
CT C7 N C 9 0.0 8.36800 1  sCT   sC7    sN    sC     9    8.36800   5.021     1
CT C7 N C 9 0.0 8.36800 2  sCT   sC7    sN    sC     9    8.36800   5.021     2
CT C7 N C 9 0.0 1.67360 3  sCT   sC7    sN    sC     9    1.67360   1.004     3
CT C9 C O2 9 180.0 2.51040 2  sCT   sC9    sC   sO2     9    2.51040   1.506     2
CT C9 C O 9 180.0 2.51040 2  sCT   sC9    sC    sO     9    2.51040   1.506     2
CT C9 C OB 9 180.0 2.51040 2  sCT   sC9    sC   sOB     9    2.51040   1.506     2
CT CM CM CT 9 180.0 27.82360 2  sCT   sCM   sCM   sCT     9    27.82360  16.694    2
CT CM CM CT 9 180.0 7.94960 1  sCT   sCM   sCM   sCT     9    7.94960   4.770     1
CT CT C4 CT 9 0.0 0.62760 3  sCT   sCT   sC4   sCT     9    0.62760   0.377     3
CT CT C5 O 9 180.0 4.18400 1  sCT   sCT   sC5    sO     9    4.18400   2.510     1
CT CT C6 O2 9 180.0 0.77822 4  sCT   sCT   sC6   sO2     9    0.77822   0.467     4
CT CT C6 O2 9 180.0 1.48114 6  sCT   sCT   sC6   sO2     9    1.48114   0.889     6
CT CT C6 O2 9 180.0 3.65263 2  sCT   sCT   sC6   sO2     9    3.65263   2.192     2
CT CT C* CW 9 0.0 5.02080 1  sCT   sCT   sC*   sCW     9    5.02080   3.012     1
CT CT C N 9 0.0 0.83680 1  sCT   sCT    sC    sN     9    0.83680   0.502     1
CT CT C N 9 0.0 0.83680 2  sCT   sCT    sC    sN     9    0.83680   0.502     2
CT CT C N 9 0.0 1.67360 3  sCT   sCT    sC    sN     9    1.67360   1.004     3
CT CT CT C3 9 0.0 0.62760 3  sCT   sCT   sCT   sC3     9    0.62760   0.377     3
CT CT CT C7 9 0.0 0.75312 3  sCT   sCT   sCT   sC7     9    0.75312   0.452     3
CT CT CT C7 9 180.0 0.83680 1  sCT   sCT   sCT   sC7     9    0.83680   0.502     1
CT CT CT C7 9 180.0 1.04600 2  sCT   sCT   sCT   sC7     9    1.04600   0.628     2
CT CT CT CT 9 0.0 0.62760 3  sCT   sCT   sCT   sCT     9    0.62760   0.377     3
CT CT N C 9 0.0 1.67360 3  sCT   sCT    sN    sC     9    1.67360   1.004     3
CT CT N C 9 0.0 8.36800 1  sCT   sCT    sN    sC     9    8.36800   5.021     1
CT CT N C 9 0.0 8.36800 2  sCT   sCT    sN    sC     9    8.36800   5.021     2
CT CT OS C 9 0.0 1.60247 3  sCT   sCT   sOS    sC     9    1.60247   0.961     3
CT CT OS C 9 180.0 3.34720 1  sCT   sCT   sOS    sC     9    3.34720   2.008     1
CT CT OS CT 9 0.0 1.60247 3  sCT   sCT   sOS   sCT     9    1.60247   0.961     3
CT CT OS CT 9 180.0 0.41840 2  sCT   sCT   sOS   sCT     9    0.41840   0.251     2
CT CT SH HS 9 0.0 0.83680 3  sCT   sCT   sSH   sHS     9    0.83680   0.502     3
CT CT SH HS 9 0.0 2.09200 2  sCT   sCT   sSH   sHS     9    2.09200   1.255     2
CT OS CT N* 9 0.0 1.60247 3  sCT   sOS   sCT   sN*     9    1.60247   0.961     3
CT OS CT N* 9 0.0 2.71960 2  sCT   sOS   sCT   sN*     9    2.71960   1.632     2
CT OS CT OS 9 0.0 0.41840 3  sCT   sOS   sCT   sOS     9    0.41840   0.251     3
CT OS CT OS 9 180.0 3.55640 2  sCT   sOS   sCT   sOS     9    3.55640   2.134     2
CT OS CT OS 9 180.0 5.64840 1  sCT   sOS   sCT   sOS     9    5.64840   3.389     1
CT S S CT 9 0.0 14.64400 2  sCT    sS    sS   sCT     9    14.64400  8.786     2
CT S S CT 9 0.0 2.51040 3  sCT    sS    sS   sCT     9    2.51040   1.506     3
F CT CT F 9 180.0 5.02080 1   sF   sCT   sCT    sF     9    5.02080   3.012     1
H1 C1 C O 9 0.0 3.34720 1  sH1   sC1    sC    sO     9    3.34720   2.008     1
H1 C1 C O 9 180.0 0.33472 3  sH1   sC1    sC    sO     9    0.33472   0.201     3
H1 C7 C O 9 0.0 3.34720 1  sH1   sC7    sC    sO     9    3.34720   2.008     1
H1 C7 C O 9 180.0 0.33472 3  sH1   sC7    sC    sO     9    0.33472   0.201     3
H1 CT C O 9 0.0 3.34720 1  sH1   sCT    sC    sO     9    3.34720   2.008     1
H1 CT C O 9 180.0 0.33472 3  sH1   sCT    sC    sO     9    0.33472   0.201     3
H1 C1 C OB 9 0.0 3.34720 1  sH1   sC1    sC   sOB     9    3.34720   2.008     1
H1 C1 C OB 9 180.0 0.33472 3  sH1   sC1    sC   sOB     9    0.33472   0.201     3
H1 C7 C OB 9 0.0 3.34720 1  sH1   sC7    sC   sOB     9    3.34720   2.008     1
H1 C7 C OB 9 180.0 0.33472 3  sH1   sC7    sC   sOB     9    0.33472   0.201     3
H1 CT C OB 9 0.0 3.34720 1  sH1   sCT    sC   sOB     9    3.34720   2.008     1
H1 CT C OB 9 180.0 0.33472 3  sH1   sCT    sC   sOB     9    0.33472   0.201     3
H1 CT CT Br 9 0.0 2.30120 1  sH1   sCT   sCT   sBr     9    2.30120   1.381     1
H1 CT CT Cl 9 0.0 1.04600 1  sH1   sCT   sCT   sCl     9    1.04600   0.628     1
H1 CT CT F 9 0.0 0.79496 1  sH1   sCT   sCT    sF     9    0.79496   0.477     1
H1 CT CT OH 9 0.0 1.04600 1  sH1   sCT   sCT   sOH     9    1.04600   0.628     1
H1 CT CT OS 9 0.0 1.04600 1  sH1   sCT   sCT   sOS     9    1.04600   0.628     1
HC C3 CT CT 9 0.0 0.66944 3  sHC   sC3   sCT   sCT     9    0.66944   0.402     3
HC C4 CT CT 9 0.0 0.66944 3  sHC   sC4   sCT   sCT     9    0.66944   0.402     3
HC C4 CT HC 9 0.0 0.62760 3  sHC   sC4   sCT   sHC     9    0.62760   0.377     3
HC CT C3 HC 9 0.0 0.62760 3  sHC   sCT   sC3   sHC     9    0.62760   0.377     3
HC CT C4 CT 9 0.0 0.66944 3  sHC   sCT   sC4   sCT     9    0.66944   0.402     3
HC CT C5 O 9 0.0 3.34720 1  sHC   sCT   sC5    sO     9    3.34720   2.008     1
HC CT C5 O 9 180.0 0.33472 3  sHC   sCT   sC5    sO     9    0.33472   0.201     3
HC CT CM CM 9 0.0 4.81160 1  sHC   sCT   sCM   sCM     9    4.81160   2.887     1
HC CT CM CM 9 180.0 1.58992 3  sHC   sCT   sCM   sCM     9    1.58992   0.954     3
HC CT C O 9 0.0 3.34720 1  sHC   sCT    sC    sO     9    3.34720   2.008     1
HC CT C O 9 180.0 0.33472 3  sHC   sCT    sC    sO     9    0.33472   0.201     3
HC CT C OB 9 0.0 3.34720 1  sHC   sCT    sC   sOB     9    3.34720   2.008     1
HC CT C OB 9 180.0 0.33472 3  sHC   sCT    sC   sOB     9    0.33472   0.201     3
HC CT CT Br 9 0.0 2.30120 1  sHC   sCT   sCT   sBr     9    2.30120   1.381     1
HC CT CT C3 9 0.0 0.66944 3  sHC   sCT   sCT   sC3     9    0.66944   0.402     3
HC CT CT C4 9 0.0 0.66944 3  sHC   sCT   sCT   sC4     9    0.66944   0.402     3
HC CT CT C7 9 0.0 0.66944 3  sHC   sCT   sCT   sC7     9    0.66944   0.402     3
HC CT CT Cl 9 0.0 1.04600 1  sHC   sCT   sCT   sCl     9    1.04600   0.628     1
HC CT CT CT 9 0.0 0.66944 3  sHC   sCT   sCT   sCT     9    0.66944   0.402     3
HC CT CT F 9 0.0 0.79496 1  sHC   sCT   sCT    sF     9    0.79496   0.477     1
HC CT CT HC 9 0.0 0.62760 3  sHC   sCT   sCT   sHC     9    0.62760   0.377     3
HC CT CT OH 9 0.0 1.04600 1  sHC   sCT   sCT   sOH     9    1.04600   0.628     1
HC CT CT OS 9 0.0 1.04600 1  sHC   sCT   sCT   sOS     9    1.04600   0.628     1
H N C5 O 9 0.0 8.36800 1   sH    sN   sC5    sO     9    8.36800   5.021     1
H N C5 O 9 180.0 10.46000 2   sH    sN   sC5    sO     9    10.46000  6.276     2
H N C O 9 0.0 8.36800 1   sH    sN    sC    sO     9    8.36800   5.021     1
H N C O 9 180.0 10.46000 2   sH    sN    sC    sO     9    10.46000  6.276     2
HB N C OB 9 0.0 8.36800 1  sHB    sN    sC   sOB     9    8.36800   5.021     1
HB N C OB 9 180.0 10.46000 2  sHB    sN    sC   sOB     9    10.46000  6.276     2
HO O3 C8 CT 9 0.0 0.35982 1  sHO   sO3   sC8   sCT     9    0.35982   0.216     1
HO O3 C8 CT 9 0.0 0.41840 3  sHO   sO3   sC8   sCT     9    0.41840   0.251     3
HO O3 C8 CT 9 180.0 0.68199 2  sHO   sO3   sC8   sCT     9    0.68199   0.409     2
HO O3 C8 H1 9 0.0 0.41840 3  sHO   sO3   sC8   sH1     9    0.41840   0.251     3
HO OH C8 CT 9 0.0 0.25104 2  sHO   sOH   sC8   sCT     9    0.25104   0.151     2
HO OH C8 CT 9 0.0 0.83680 3  sHO   sOH   sC8   sCT     9    0.83680   0.502     3
HO OH C8 CT 9 0.0 3.13800 1  sHO   sOH   sC8   sCT     9    3.13800   1.883     1
HO OH C O 9 0.0 7.94960 1  sHO   sOH    sC    sO     9    7.94960   4.770     1
HO OH C O 9 180.0 9.62320 2  sHO   sOH    sC    sO     9    9.62320   5.774     2
HO OH CT CT 9 0.0 0.66944 3  sHO   sOH   sCT   sCT     9    0.66944   0.402     3
HO OH CT CT 9 0.0 1.04600 1  sHO   sOH   sCT   sCT     9    1.04600   0.628     1
N3 CT CT C3 9 0.0 0.81630 1  sN3   sCT   sCT   sC3     9    0.81630   0.490     1
N3 CT CT C3 9 180.0 3.53925 2  sN3   sCT   sCT   sC3     9    3.53925   2.124     2
N3 CT CT C6 9 180.0 11.02568 1  sN3   sCT   sCT   sC6     9    11.02568  6.615     1
N3 CT CT C6 9 180.0 4.98022 2  sN3   sCT   sCT   sC6     9    4.98022   2.988     2
N3 CT CT C6 9 180.0 0.02845 3  sN3   sCT   sCT   sC6     9    0.02845   0.017     3
N3 CT CT C6 9 0.0 1.76858 4  sN3   sCT   sCT   sC6     9    1.76858   1.061     4
N3 CT CT C6 9 0.0 0.96943 5  sN3   sCT   sCT   sC6     9    0.96943   0.582     5
N3 CT CT C6 9 180.0 0.89009 6  sN3   sCT   sCT   sC6     9    0.89009   0.534     6
N C1 C N 9 180.0 2.69445 1   sN   sC1    sC    sN     9    2.69445   1.617     1
N C1 C N 9 180.0 6.68666 2   sN   sC1    sC    sN     9    6.68666   4.012     2
N C1 C N 9 180.0 1.67111 3   sN   sC1    sC    sN     9    1.67111   1.003     3
N C1 C N 9 0.0 0.31419 4   sN   sC1    sC    sN     9    0.31419   0.189     4
N C5 CT CT 9 180.0 4.37772 1   sN   sC5   sCT   sCT     9    4.37772   2.627     1
N C5 CT CT 9 180.0 0.75730 2   sN   sC5   sCT   sCT     9    0.75730   0.454     2
N C5 CT CT 9 180.0 0.14811 3   sN   sC5   sCT   sCT     9    0.14811   0.089     3
N C5 CT CT 9 0.0 0.41966 4   sN   sC5   sCT   sCT     9    0.41966   0.252     4
N C5 CT CT 9 0.0 0.54308 5   sN   sC5   sCT   sCT     9    0.54308   0.326     5
N C5 CT CT 9 180.0 0.44373 6   sN   sC5   sCT   sCT     9    0.44373   0.266     6
N C7 C N 9 180.0 1.88280 1   sN   sC7    sC    sN     9    1.88280   1.130     1
N C7 C N 9 180.0 6.61072 2   sN   sC7    sC    sN     9    6.61072   3.966     2
N C7 C N 9 180.0 2.30120 3   sN   sC7    sC    sN     9    2.30120   1.381     3
N CT C8 CT 9 0.0 0.25104 1   sN   sCT   sC8   sCT     9    0.25104   0.151     1
N CT C8 CT 9 180.0 2.09200 2   sN   sCT   sC8   sCT     9    2.09200   1.255     2
N CT C8 CT 9 0.0 0.62760 3   sN   sCT   sC8   sCT     9    0.62760   0.377     3
N CT C8 CT 9 180.0 0.27196 4   sN   sCT   sC8   sCT     9    0.27196   0.163     4
N CT C8 O3 9 180.0 0.33472 1   sN   sCT   sC8   sO3     9    0.33472   0.201     1
N CT C8 OH 9 180.0 1.04600 1   sN   sCT   sC8   sOH     9    1.04600   0.628     1
N CT C N 9 360.0 0.82425 1   sN   sCT    sC    sN     9    0.82425   0.495     1
N CT C N 9 180.0 6.04588 2   sN   sCT    sC    sN     9    6.04588   3.628     2
N CT C N 9 180.0 2.00414 3   sN   sCT    sC    sN     9    2.00414   1.202     3
N CT C N 9 360.0 0.07991 4   sN   sCT    sC    sN     9    0.07991   0.048     4
N CT C N 9 360.0 0.01674 5   sN   sCT    sC    sN     9    0.01674   0.010     5
N CT CT C3 9 0.0 0.81630 1   sN   sCT   sCT   sC3     9    0.81630   0.490     1
N CT CT C3 9 180.0 3.53925 2   sN   sCT   sCT   sC3     9    3.53925   2.124     2
N CT CT C5 9 180.0 2.63592 1   sN   sCT   sCT   sC5     9    2.63592   1.582     1
N CT CT C6 9 180.0 12.05410 1   sN   sCT   sCT   sC6     9    12.05410  7.232     1
N CT CT C6 9 180.0 5.06682 2   sN   sCT   sCT   sC6     9    5.06682   3.040     2
N CT CT C6 9 0.0 0.25941 3   sN   sCT   sCT   sC6     9    0.25941   0.156     3
N CT CT C6 9 0.0 1.02508 4   sN   sCT   sCT   sC6     9    1.02508   0.615     4
N CT CT C6 9 0.0 0.54810 5   sN   sCT   sCT   sC6     9    0.54810   0.329     5
N CT CT C6 9 180.0 0.59413 6   sN   sCT   sCT   sC6     9    0.59413   0.356     6
N CT CT C9 9 0.0 0.41840 1   sN   sCT   sCT   sC9     9    0.41840   0.251     1
N CT CT CC 9 180.0 1.67360 1   sN   sCT   sCT   sCC     9    1.67360   1.004     1
N CT CT SH 9 180.0 2.30120 1   sN   sCT   sCT   sSH     9    2.30120   1.381     1
N CT CT SH 9 180.0 2.63592 2   sN   sCT   sCT   sSH     9    2.63592   1.582     2
N CT CT SH 9 180.0 0.25104 3   sN   sCT   sCT   sSH     9    0.25104   0.151     3
N CT CT SH 9 180.0 0.12552 4   sN   sCT   sCT   sSH     9    0.12552   0.075     4
O C OS CT 9 180.0 5.85760 1   sO    sC   sOS   sCT     9    5.85760   3.515     1
O C OS CT 9 180.0 11.29680 2   sO    sC   sOS   sCT     9    11.29680  6.778     2
OH CT CT OH 9 0.0 0.60250 3  sOH   sCT   sCT   sOH     9    0.60250   0.361     3
OH CT CT OH 9 0.0 4.91620 2  sOH   sCT   sCT   sOH     9    4.91620   2.950     2
OH P OS CT 9 0.0 1.04600 3  sOH    sP   sOS   sCT     9    1.04600   0.628     3
OH P OS CT 9 0.0 5.02080 2  sOH    sP   sOS   sCT     9    5.02080   3.012     2
OS CT CT OH 9 0.0 0.60250 3  sOS   sCT   sCT   sOH     9    0.60250   0.361     3
OS CT CT OH 9 0.0 4.91620 2  sOS   sCT   sCT   sOH     9    4.91620   2.950     2
OS CT CT OS 9 0.0 4.91620 2  sOS   sCT   sCT   sOS     9    4.91620   2.950     2
OS CT CT OS 9 0.0 0.60250 3  sOS   sCT   sCT   sOS     9    0.60250   0.361     3
OS CT N* CK 9 0.0 10.46000 1  sOS   sCT   sN*   sCK     9    10.46000  6.276     1
OS CT N* CM 9 0.0 10.46000 1  sOS   sCT   sN*   sCM     9    10.46000  6.276     1
OS P OS CT 9 0.0 5.02080 2  sOS    sP   sOS   sCT     9    5.02080   3.012     2
OS P OS CT 9 0.0 1.04600 3  sOS    sP   sOS   sCT     9    1.04600   0.628     3
N CT CT CA 9 0.0 0.00000 0   sN   sCT   sCT   sCA     9    0.00000   0.000     0
N CT CT C* 9 0.0 0.00000 0   sN   sCT   sCT   sC*     9    0.00000   0.000     0
CT CT C9 S 9 0.0 0.00000 0  sCT   sCT   sC9    sS     9    0.00000   0.000     0
CT CT C9 CT 9 0.0 0.00000 0  sCT   sCT   sC9   sCT     9    0.00000   0.000     0
X C1 N3 X 9 0.0 0.65084 3    X   sC1   sN3     X     9    0.65084   0.391     3
X C5 N X 9 180.0 10.46000 2    X   sC5    sN     X     9    10.46000  6.276     2
X C7 CT X 9 0.0 0.65084 3    X   sC7   sCT     X     9    0.65084   0.391     3
X C7 N3 X 9 0.0 0.65084 3    X   sC7   sN3     X     9    0.65084   0.391     3
X C8 O3 X 9 0.0 0.69873 3    X   sC8   sO3     X     9    0.69873   0.419     3
X C8 OH X 9 0.0 0.69873 3    X   sC8   sOH     X     9    0.69873   0.419     3
X C9 S X 9 0.0 1.39327 3    X   sC9    sS     X     9    1.39327   0.836     3
X CA CA X 9 180.0 15.16700 2    X   sCA   sCA     X     9    15.16700  9.100     2
X CA CB X 9 180.0 14.64400 2    X   sCA   sCB     X     9    14.64400  8.786     2
X CA CM X 9 180.0 10.66920 2    X   sCA   sCM     X     9    10.66920  6.402     2
X CA CN X 9 180.0 15.16700 2    X   sCA   sCN     X     9    15.16700  9.100     2
X CA N2 X 9 180.0 10.04160 2    X   sCA   sN2     X     9    10.04160  6.025     2
X CA NA X 9 180.0 6.27600 2    X   sCA   sNA     X     9    6.27600   3.766     2
X CA NC X 9 180.0 20.08320 2    X   sCA   sNC     X     9    20.08320  12.050    2
X CA OH X 9 180.0 3.76560 2    X   sCA   sOH     X     9    3.76560   2.259     2
X CB CB X 9 180.0 22.80280 2    X   sCB   sCB     X     9    22.80280  13.682    2
X CB CN X 9 180.0 12.55200 2    X   sCB   sCN     X     9    12.55200  7.531     2
X CB NB X 9 180.0 10.66920 2    X   sCB   sNB     X     9    10.66920  6.402     2
X CB NC X 9 180.0 17.36360 2    X   sCB   sNC     X     9    17.36360  10.418    2
X CB N* X 9 180.0 6.90360 2    X   sCB   sN*     X     9    6.90360   4.142     2
X C CA X 9 180.0 15.16700 2    X    sC   sCA     X     9    15.16700  9.100     2
X C CB X 9 180.0 12.55200 2    X    sC   sCB     X     9    12.55200  7.531     2
X C* CB X 9 180.0 7.00820 2    X   sC*   sCB     X     9    7.00820   4.205     2
X CC CV X 9 180.0 21.54760 2    X   sCC   sCV     X     9    21.54760  12.929    2
X CC CW X 9 180.0 22.48900 2    X   sCC   sCW     X     9    22.48900  13.493    2
X C CM X 9 180.0 9.10020 2    X    sC   sCM     X     9    9.10020   5.460     2
X CC NA X 9 180.0 5.85760 2    X   sCC   sNA     X     9    5.85760   3.515     2
X CC NB X 9 180.0 10.04160 2    X   sCC   sNB     X     9    10.04160  6.025     2
X C* CW X 9 180.0 27.30060 2    X   sC*   sCW     X     9    27.30060  16.380    2
X C C X 9 180.0 15.16700 2    X    sC    sC     X     9    15.16700  9.100     2
X CK NB X 9 180.0 41.84000 2    X   sCK   sNB     X     9    41.84000  25.104    2
X CK N* X 9 180.0 7.11280 2    X   sCK   sN*     X     9    7.11280   4.268     2
X CM CM X 9 180.0 27.82360 2    X   sCM   sCM     X     9    27.82360  16.694    2
X CM N* X 9 180.0 7.74040 2    X   sCM   sN*     X     9    7.74040   4.644     2
X CM OS X 9 180.0 4.39320 2    X   sCM   sOS     X     9    4.39320   2.636     2
X C NA X 9 180.0 5.64840 2    X    sC   sNA     X     9    5.64840   3.389     2
X C NC X 9 180.0 16.73600 2    X    sC   sNC     X     9    16.73600  10.042    2
X CN NA X 9 180.0 6.38060 2    X   sCN   sNA     X     9    6.38060   3.828     2
X C N X 9 180.0 10.46000 2    X    sC    sN     X     9    10.46000  6.276     2
X C N* X 9 180.0 6.06680 2    X    sC   sN*     X     9    6.06680   3.640     2
X C OH X 9 180.0 9.62320 2    X    sC   sOH     X     9    9.62320   5.774     2
X C OS X 9 180.0 11.29680 2    X    sC   sOS     X     9    11.29680  6.778     2
X C O X 9 180.0 11.71520 2    X    sC    sO     X     9    11.71520  7.029     2
X C OB X 9 180.0 11.71520 2    X    sC   sOB     X     9    11.71520  7.029     2
X CQ NC X 9 180.0 28.45120 2    X   sCQ   sNC     X     9    28.45120  17.071    2
X CR NA X 9 180.0 9.72780 2    X   sCR   sNA     X     9    9.72780   5.837     2
X CR NB X 9 180.0 20.92000 2    X   sCR   sNB     X     9    20.92000  12.552    2
X CT C8 X 9 0.0 0.64852 3    X   sCT   sC8     X     9    0.64852   0.389     3
X CT C9 X 9 0.0 0.64852 3    X   sCT   sC9     X     9    0.64852   0.389     3
X CT CT X 9 0.0 0.65084 3    X   sCT   sCT     X     9    0.65084   0.391     3
X CT N3 X 9 0.0 0.65084 3    X   sCT   sN3     X     9    0.65084   0.391     3
X CT OH X 9 0.0 0.69733 3    X   sCT   sOH     X     9    0.69733   0.418     3
X CT OS X 9 0.0 1.60387 3    X   sCT   sOS     X     9    1.60387   0.962     3
X CT SH X 9 0.0 1.04600 3    X   sCT   sSH     X     9    1.04600   0.628     3
X CT S X 9 0.0 1.39467 3    X   sCT    sS     X     9    1.39467   0.837     3
X CV NB X 9 180.0 10.04160 2    X   sCV   sNB     X     9    10.04160  6.025     2
X CW NA X 9 180.0 6.27600 2    X   sCW   sNA     X     9    6.27600   3.766     2
X OH P X 9 0.0 1.04600 3    X   sOH    sP     X     9    1.04600   0.628     3
X OS P X 9 0.0 1.04600 3    X   sOS    sP     X     9    1.04600   0.628     3
X C1 N X 9 0.0 0.00000 0    X   sC1    sN     X     9    0.00000   0.000     0
X C C1 X 9 0.0 0.00000 0    X    sC   sC1     X     9    0.00000   0.000     0
X C C9 X 9 0.0 0.00000 0    X    sC   sC9     X     9    0.00000   0.000     0
X C CT X 9 0.0 0.00000 0    X    sC   sCT     X     9    0.00000   0.000     0
X CA CT X 9 0.0 0.00000 0    X   sCA   sCT     X     9    0.00000   0.000     0
X CC CT X 9 0.0 0.00000 0    X   sCC   sCT     X     9    0.00000   0.000     0
X CM CT X 9 0.0 0.00000 0    X   sCM   sCT     X     9    0.00000   0.000     0
X CT N X 9 0.0 0.00000 0    X   sCT    sN     X     9    0.00000   0.000     0
X CT N* X 9 0.0 0.00000 0    X   sCT   sN*     X     9    0.00000   0.000     0
X CT N2 X 9 0.0 0.00000 0    X   sCT   sN2     X     9    0.00000   0.000     0
X C* CT X 9 0.0 0.00000 0    X   sC*   sCT     X     9    0.00000   0.000     0
X C7 N X 9 0.0 0.00000 0    X   sC7    sN     X     9    0.00000   0.000     0
X C C7 X 9 0.0 0.00000 0    X    sC   sC7     X     9    0.00000   0.000     0
X C5 CT X 9 0.0 0.00000 0    X   sC5   sCT     X     9    0.00000   0.000     0
X C6 CT X 9 0.0 0.00000 0    X   sC6   sCT     X     9    0.00000   0.000     0

[ moleculetype ]
; Name            nrexcl
Protein_chain_A     3

[ atoms ]
     1        sN3    121   NASP      N      1     0.0606      14.01
     2         sH    121   NASP     H1      2     0.1704       1.01
     3         sH    121   NASP     H2      3     0.1704       1.01
     4         sH    121   NASP     H3      4     0.1704       1.01
     5        sCT    121   NASP     CA      5     0.0226      12.01
     6        sHP    121   NASP     HA      6     0.0884       1.01
     7        sCT    121   NASP     CB      7    -0.0182      12.01
     8        sHC    121   NASP    HB1      8    -0.0131       1.01
     9        sHC    121   NASP    HB2      9    -0.0131       1.01
    10        sC6    121   NASP     CG     10     0.6347      12.01
    11        sO2    121   NASP    OD1     11    -0.6262      16.00
    12        sO2    121   NASP    OD2     12    -0.6262      16.00
    13         sC    121   NASP      C     13     0.4354      12.01
    14        sOB    121   NASP      O     14    -0.4562      16.00
    15         sN    122    ASN      N     15    -0.3220      14.01
    16        sHB    122    ASN      H     16     0.2106       1.01
    17        sCT    122    ASN     CA     17     0.0111      12.01
    18        sH1    122    ASN     HA     18     0.0812       1.01
    19        sCT    122    ASN     CB     19    -0.1581      12.01
    20        sHC    122    ASN    HB1     20     0.0617       1.01
    21        sHC    122    ASN    HB2     21     0.0617       1.01
    22        sC5    122    ASN     CG     22     0.5523      12.01
    23         sO    122    ASN    OD1     23    -0.4594      16.00
    24         sN    122    ASN    ND2     24    -0.7119      14.01
    25         sH    122    ASN   HD21     25     0.3250       1.01
    26         sH    122    ASN   HD22     26     0.3250       1.01
    27         sC    122    ASN      C     27     0.4627      12.01
    28        sOB    122    ASN      O     28    -0.4399      16.00
    29         sN    123    GLU      N     29    -0.3220      14.01
    30        sHB    123    GLU      H     30     0.2106       1.01
    31        sCT    123    GLU     CA     31    -0.1763      12.01
    32        sH1    123    GLU     HA     32     0.1197       1.01
    33        sCT    123    GLU     CB     33     0.0899      12.01
    34        sHC    123    GLU    HB1     34    -0.0048       1.01
    35        sHC    123    GLU    HB2     35    -0.0048       1.01
    36        sC9    123    GLU     CG     36    -0.0634      12.01
    37        sHC    123    GLU    HG1     37    -0.0048       1.01
    38        sHC    123    GLU    HG2     38    -0.0048       1.01
    39         sC    123    GLU     CD     39     0.5644      12.01
    40        sO2    123    GLU    OE1     40    -0.6006      16.00
    41        sO2    123    GLU    OE2     41    -0.6006      16.00
    42         sC    123    GLU      C     42     0.4627      12.01
    43        sOB    123    GLU      O     43    -0.4399      16.00
    44         sN    124    ALA      N     44    -0.3220      14.01
    45        sHB    124    ALA      H     45     0.2106       1.01
    46        sCT    124    ALA     CA     46     0.0261      12.01
    47        sH1    124    ALA     HA     47     0.0637       1.01
    48        sCT    124    ALA     CB     48    -0.1414      12.01
    49        sHC    124    ALA    HB1     49     0.0467       1.01
    50        sHC    124    ALA    HB2     50     0.0467       1.01
    51        sHC    124    ALA    HB3     51     0.0467       1.01
    52         sC    124    ALA      C     52     0.4627      12.01
    53        sOB    124    ALA      O     53    -0.4399      16.00
    54         sN    125    TYR      N     54    -0.3220      14.01
    55        sHB    125    TYR      H     55     0.2106       1.01
    56        sCT    125    TYR     CA     56    -0.0011      12.01
    57        sH1    125    TYR     HA     57     0.0679       1.01
    58        sCT    125    TYR     CB     58    -0.0118      12.01
    59        sHC    125    TYR    HB1     59     0.0229       1.01
    60        sHC    125    TYR    HB2     60     0.0229       1.01
    61        sCA    125    TYR     CG     61    -0.0009      12.01
    62        sCA    125    TYR    CD1     62    -0.1476      12.01
    63        sHA    125    TYR    HD1     63     0.1316       1.01
    64        sCA    125    TYR    CE1     64    -0.1813      12.01
    65        sHA    125    TYR    HE1     65     0.1283       1.01
    66         sC    125    TYR     CZ     66     0.2499      12.01
    67        sOH    125    TYR     OH     67    -0.4321      16.00
    68        sHO    125    TYR     HH     68     0.3092       1.01
    69        sCA    125    TYR    CE2     69    -0.1813      12.01
    70        sHA    125    TYR    HE2     70     0.1283       1.01
    71        sCA    125    TYR    CD2     71    -0.1476      12.01
    72        sHA    125    TYR    HD2     72     0.1316       1.01
    73         sC    125    TYR      C     73     0.4627      12.01
    74        sOB    125    TYR      O     74    -0.4399      16.00
    75         sN    126    GLU      N     75    -0.3220      14.01
    76        sHB    126    GLU      H     76     0.2106       1.01
    77        sCT    126    GLU     CA     77    -0.1763      12.01
    78        sH1    126    GLU     HA     78     0.1197       1.01
    79        sCT    126    GLU     CB     79     0.0899      12.01
    80        sHC    126    GLU    HB1     80    -0.0048       1.01
    81        sHC    126    GLU    HB2     81    -0.0048       1.01
    82        sC9    126    GLU     CG     82    -0.0634      12.01
    83        sHC    126    GLU    HG1     83    -0.0048       1.01
    84        sHC    126    GLU    HG2     84    -0.0048       1.01
    85         sC    126    GLU     CD     85     0.5644      12.01
    86        sO2    126    GLU    OE1     86    -0.6006      16.00
    87        sO2    126    GLU    OE2     87    -0.6006      16.00
    88         sC    126    GLU      C     88     0.4627      12.01
    89        sOB    126    GLU      O     89    -0.4399      16.00
    90         sN    127    MET      N     90    -0.3220      14.01
    91        sHB    127    MET      H     91     0.2106       1.01
    92        sCT    127    MET     CA     92    -0.0184      12.01
    93        sH1    127    MET     HA     93     0.0682       1.01
    94        sCT    127    MET     CB     94     0.0265      12.01
    95        sHC    127    MET    HB1     95     0.0187       1.01
    96        sHC    127    MET    HB2     96     0.0187       1.01
    97        sC9    127    MET     CG     97     0.0014      12.01
    98        sH1    127    MET    HG1     98     0.0341       1.01
    99        sH1    127    MET    HG2     99     0.0341       1.01
   100         sS    127    MET     SD    100    -0.2120      32.06
   101        sCT    127    MET     CE    101    -0.0415      12.01
   102        sH1    127    MET    HE1    102     0.0530       1.01
   103        sH1    127    MET    HE2    103     0.0530       1.01
   104        sH1    127    MET    HE3    104     0.0530       1.01
   105         sC    127    MET      C    105     0.4627      12.01
   106        sOB    127    MET      O    106    -0.4399      16.00
   107         sN    128    PRO      N    107    -0.1974      14.01
   108        sCT    128    PRO     CD    108     0.0149      12.01
   109        sH1    128    PRO    HD1    109     0.0303       1.01
   110        sH1    128    PRO    HD2    110     0.0303       1.01
   111        sCT    128    PRO     CG    111     0.0146      12.01
   112        sHC    128    PRO    HG1    112     0.0165       1.01
   113        sHC    128    PRO    HG2    113     0.0165       1.01
   114        sCT    128    PRO     CB    114    -0.0054      12.01
   115        sHC    128    PRO    HB1    115     0.0196       1.01
   116        sHC    128    PRO    HB2    116     0.0196       1.01
   117        sC7    128    PRO     CA    117    -0.0206      12.01
   118        sH1    128    PRO     HA    118     0.0497       1.01
   119         sC    128    PRO      C    119     0.4567      12.01
   120        sOB    128    PRO      O    120    -0.4452      16.00
   121         sN    129    SER      N    121    -0.3220      14.01
   122        sHB    129    SER      H    122     0.2106       1.01
   123        sCT    129    SER     CA    123    -0.0193      12.01
   124        sH1    129    SER     HA    124     0.0653       1.01
   125        sC8    129    SER     CB    125     0.1640      12.01
   126        sH1    129    SER    HB1    126     0.0273       1.01
   127        sH1    129    SER    HB2    127     0.0273       1.01
   128        sOH    129    SER     OG    128    -0.5071      16.00
   129        sHO    129    SER    HG1    129     0.3311       1.01
   130         sC    129    SER      C    130     0.4627      12.01
   131        sOB    129    SER      O    131    -0.4399      16.00
   132         sN    130    GLU      N    132    -0.3220      14.01
   133        sHB    130    GLU      H    133     0.2106       1.01
   134        sCT    130    GLU     CA    134    -0.1763      12.01
   135        sH1    130    GLU     HA    135     0.1197       1.01
   136        sCT    130    GLU     CB    136     0.0899      12.01
   137        sHC    130    GLU    HB1    137    -0.0048       1.01
   138        sHC    130    GLU    HB2    138    -0.0048       1.01
   139        sC9    130    GLU     CG    139    -0.0634      12.01
   140        sHC    130    GLU    HG1    140    -0.0048       1.01
   141        sHC    130    GLU    HG2    141    -0.0048       1.01
   142         sC    130    GLU     CD    142     0.5644      12.01
   143        sO2    130    GLU    OE1    143    -0.6006      16.00
   144        sO2    130    GLU    OE2    144    -0.6006      16.00
   145         sC    130    GLU      C    145     0.4627      12.01
   146        sOB    130    GLU      O    146    -0.4399      16.00
   147         sN    131    GLU      N    147    -0.3220      14.01
   148        sHB    131    GLU      H    148     0.2106       1.01
   149        sCT    131    GLU     CA    149    -0.1763      12.01
   150        sH1    131    GLU     HA    150     0.1197       1.01
   151        sCT    131    GLU     CB    151     0.0899      12.01
   152        sHC    131    GLU    HB1    152    -0.0048       1.01
   153        sHC    131    GLU    HB2    153    -0.0048       1.01
   154        sC9    131    GLU     CG    154    -0.0634      12.01
   155        sHC    131    GLU    HG1    155    -0.0048       1.01
   156        sHC    131    GLU    HG2    156    -0.0048       1.01
   157         sC    131    GLU     CD    157     0.5644      12.01
   158        sO2    131    GLU    OE1    158    -0.6006      16.00
   159        sO2    131    GLU    OE2    159    -0.6006      16.00
   160         sC    131    GLU      C    160     0.4627      12.01
   161        sOB    131    GLU      O    161    -0.4399      16.00
   162         sN    132    GLY      N    162    -0.3220      14.01
   163        sHB    132    GLY      H    163     0.2106       1.01
   164        sC1    132    GLY     CA    164    -0.0195      12.01
   165        sH1    132    GLY    HA1    165     0.0541       1.01
   166        sH1    132    GLY    HA2    166     0.0541       1.01
   167         sC    132    GLY      C    167     0.4627      12.01
   168        sOB    132    GLY      O    168    -0.4399      16.00
   169         sN    133    TYR      N    169    -0.3220      14.01
   170        sHB    133    TYR      H    170     0.2106       1.01
   171        sCT    133    TYR     CA    171    -0.0011      12.01
   172        sH1    133    TYR     HA    172     0.0679       1.01
   173        sCT    133    TYR     CB    173    -0.0118      12.01
   174        sHC    133    TYR    HB1    174     0.0229       1.01
   175        sHC    133    TYR    HB2    175     0.0229       1.01
   176        sCA    133    TYR     CG    176    -0.0009      12.01
   177        sCA    133    TYR    CD1    177    -0.1476      12.01
   178        sHA    133    TYR    HD1    178     0.1316       1.01
   179        sCA    133    TYR    CE1    179    -0.1813      12.01
   180        sHA    133    TYR    HE1    180     0.1283       1.01
   181         sC    133    TYR     CZ    181     0.2499      12.01
   182        sOH    133    TYR     OH    182    -0.4321      16.00
   183        sHO    133    TYR     HH    183     0.3092       1.01
   184        sCA    133    TYR    CE2    184    -0.1813      12.01
   185        sHA    133    TYR    HE2    185     0.1283       1.01
   186        sCA    133    TYR    CD2    186    -0.1476      12.01
   187        sHA    133    TYR    HD2    187     0.1316       1.01
   188         sC    133    TYR      C    188     0.4627      12.01
   189        sOB    133    TYR      O    189    -0.4399      16.00
   190         sN    134    GLN      N    190    -0.3220      14.01
   191        sHB    134    GLN      H    191     0.2106       1.01
   192        sCT    134    GLN     CA    192    -0.0024      12.01
   193        sH1    134    GLN     HA    193     0.0658       1.01
   194        sCT    134    GLN     CB    194    -0.0028      12.01
   195        sHC    134    GLN    HB1    195     0.0132       1.01
   196        sHC    134    GLN    HB2    196     0.0132       1.01
   197        sC9    134    GLN     CG    197    -0.0500      12.01
   198        sHC    134    GLN    HG1    198     0.0273       1.01
   199        sHC    134    GLN    HG2    199     0.0273       1.01
   200         sC    134    GLN     CD    200     0.5384      12.01
   201         sO    134    GLN    OE1    201    -0.4714      16.00
   202         sN    134    GLN    NE2    202    -0.7287      14.01
   203         sH    134    GLN   HE21    203     0.3293       1.01
   204         sH    134    GLN   HE22    204     0.3293       1.01
   205         sC    134    GLN      C    205     0.4627      12.01
   206        sOB    134    GLN      O    206    -0.4399      16.00
   207         sN    135    ASP      N    207    -0.3220      14.01
   208        sHB    135    ASP      H    208     0.2106       1.01
   209        sCT    135    ASP     CA    209    -0.1739      12.01
   210        sH1    135    ASP     HA    210     0.1132       1.01
   211        sCT    135    ASP     CB    211     0.0028      12.01
   212        sHC    135    ASP    HB1    212    -0.0121       1.01
   213        sHC    135    ASP    HB2    213    -0.0121       1.01
   214        sC6    135    ASP     CG    214     0.5909      12.01
   215        sO2    135    ASP    OD1    215    -0.5974      16.00
   216        sO2    135    ASP    OD2    216    -0.5974      16.00
   217         sC    135    ASP      C    217     0.4627      12.01
   218        sOB    135    ASP      O    218    -0.4399      16.00
   219         sN    136    TYR      N    219    -0.3220      14.01
   220        sHB    136    TYR      H    220     0.2106       1.01
   221        sCT    136    TYR     CA    221    -0.0011      12.01
   222        sH1    136    TYR     HA    222     0.0679       1.01
   223        sCT    136    TYR     CB    223    -0.0118      12.01
   224        sHC    136    TYR    HB1    224     0.0229       1.01
   225        sHC    136    TYR    HB2    225     0.0229       1.01
   226        sCA    136    TYR     CG    226    -0.0009      12.01
   227        sCA    136    TYR    CD1    227    -0.1476      12.01
   228        sHA    136    TYR    HD1    228     0.1316       1.01
   229        sCA    136    TYR    CE1    229    -0.1813      12.01
   230        sHA    136    TYR    HE1    230     0.1283       1.01
   231         sC    136    TYR     CZ    231     0.2499      12.01
   232        sOH    136    TYR     OH    232    -0.4321      16.00
   233        sHO    136    TYR     HH    233     0.3092       1.01
   234        sCA    136    TYR    CE2    234    -0.1813      12.01
   235        sHA    136    TYR    HE2    235     0.1283       1.01
   236        sCA    136    TYR    CD2    236    -0.1476      12.01
   237        sHA    136    TYR    HD2    237     0.1316       1.01
   238         sC    136    TYR      C    238     0.4627      12.01
   239        sOB    136    TYR      O    239    -0.4399      16.00
   240         sN    137    GLU      N    240    -0.3220      14.01
   241        sHB    137    GLU      H    241     0.2106       1.01
   242        sCT    137    GLU     CA    242    -0.1763      12.01
   243        sH1    137    GLU     HA    243     0.1197       1.01
   244        sCT    137    GLU     CB    244     0.0899      12.01
   245        sHC    137    GLU    HB1    245    -0.0048       1.01
   246        sHC    137    GLU    HB2    246    -0.0048       1.01
   247        sC9    137    GLU     CG    247    -0.0634      12.01
   248        sHC    137    GLU    HG1    248    -0.0048       1.01
   249        sHC    137    GLU    HG2    249    -0.0048       1.01
   250         sC    137    GLU     CD    250     0.5644      12.01
   251        sO2    137    GLU    OE1    251    -0.6006      16.00
   252        sO2    137    GLU    OE2    252    -0.6006      16.00
   253         sC    137    GLU      C    253     0.4627      12.01
   254        sOB    137    GLU      O    254    -0.4399      16.00
   255         sN    138    PRO      N    255    -0.1974      14.01
   256        sCT    138    PRO     CD    256     0.0149      12.01
   257        sH1    138    PRO    HD1    257     0.0303       1.01
   258        sH1    138    PRO    HD2    258     0.0303       1.01
   259        sCT    138    PRO     CG    259     0.0146      12.01
   260        sHC    138    PRO    HG1    260     0.0165       1.01
   261        sHC    138    PRO    HG2    261     0.0165       1.01
   262        sCT    138    PRO     CB    262    -0.0054      12.01
   263        sHC    138    PRO    HB1    263     0.0196       1.01
   264        sHC    138    PRO    HB2    264     0.0196       1.01
   265        sC7    138    PRO     CA    265    -0.0206      12.01
   266        sH1    138    PRO     HA    266     0.0497       1.01
   267         sC    138    PRO      C    267     0.4567      12.01
   268        sOB    138    PRO      O    268    -0.4452      16.00
   269         sN    139    GLU      N    269    -0.3220      14.01
   270        sHB    139    GLU      H    270     0.2106       1.01
   271        sCT    139    GLU     CA    271    -0.1763      12.01
   272        sH1    139    GLU     HA    272     0.1197       1.01
   273        sCT    139    GLU     CB    273     0.0899      12.01
   274        sHC    139    GLU    HB1    274    -0.0048       1.01
   275        sHC    139    GLU    HB2    275    -0.0048       1.01
   276        sC9    139    GLU     CG    276    -0.0634      12.01
   277        sHC    139    GLU    HG1    277    -0.0048       1.01
   278        sHC    139    GLU    HG2    278    -0.0048       1.01
   279         sC    139    GLU     CD    279     0.5644      12.01
   280        sO2    139    GLU    OE1    280    -0.6006      16.00
   281        sO2    139    GLU    OE2    281    -0.6006      16.00
   282         sC    139    GLU      C    282     0.4627      12.01
   283        sOB    139    GLU      O    283    -0.4399      16.00
   284         sN    140   CALA      N    284    -0.2960      14.01
   285        sHB    140   CALA      H    285     0.2077       1.01
   286        sCT    140   CALA     CA    286    -0.1353      12.01
   287        sH1    140   CALA     HA    287     0.0826       1.01
   288        sCT    140   CALA     CB    288    -0.1621      12.01
   289        sHC    140   CALA    HB1    289     0.0592       1.01
   290        sHC    140   CALA    HB2    290     0.0592       1.01
   291        sHC    140   CALA    HB3    291     0.0592       1.01
   292         sC    140   CALA      C    292     0.5988      12.01
   293        sO2    140   CALA    OC1    293    -0.6239      16.00
   294        sO2    140   CALA    OC2    294    -0.6239      16.00

[ bonds ]
    1     2     1
    1     3     1
    1     4     1
    1     5     1
    5     6     1
    5     7     1
    5    13     1
    7     8     1
    7     9     1
    7    10     1
   10    11     1
   10    12     1
   13    14     1
   13    15     1
   15    16     1
   15    17     1
   17    18     1
   17    19     1
   17    27     1
   19    20     1
   19    21     1
   19    22     1
   22    23     1
   22    24     1
   24    25     1
   24    26     1
   27    28     1
   27    29     1
   29    30     1
   29    31     1
   31    32     1
   31    33     1
   31    42     1
   33    34     1
   33    35     1
   33    36     1
   36    37     1
   36    38     1
   36    39     1
   39    40     1
   39    41     1
   42    43     1
   42    44     1
   44    45     1
   44    46     1
   46    47     1
   46    48     1
   46    52     1
   48    49     1
   48    50     1
   48    51     1
   52    53     1
   52    54     1
   54    55     1
   54    56     1
   56    57     1
   56    58     1
   56    73     1
   58    59     1
   58    60     1
   58    61     1
   61    62     1
   61    71     1
   62    63     1
   62    64     1
   64    65     1
   64    66     1
   66    67     1
   66    69     1
   67    68     1
   69    70     1
   69    71     1
   71    72     1
   73    74     1
   73    75     1
   75    76     1
   75    77     1
   77    78     1
   77    79     1
   77    88     1
   79    80     1
   79    81     1
   79    82     1
   82    83     1
   82    84     1
   82    85     1
   85    86     1
   85    87     1
   88    89     1
   88    90     1
   90    91     1
   90    92     1
   92    93     1
   92    94     1
   92   105     1
   94    95     1
   94    96     1
   94    97     1
   97    98     1
   97    99     1
   97   100     1
  100   101     1
  101   102     1
  101   103     1
  101   104     1
  105   106     1
  105   107     1
  107   108     1
  107   117     1
  108   109     1
  108   110     1
  108   111     1
  111   112     1
  111   113     1
  111   114     1
  114   115     1
  114   116     1
  114   117     1
  117   118     1
  117   119     1
  119   120     1
  119   121     1
  121   122     1
  121   123     1
  123   124     1
  123   125     1
  123   130     1
  125   126     1
  125   127     1
  125   128     1
  128   129     1
  130   131     1
  130   132     1
  132   133     1
  132   134     1
  134   135     1
  134   136     1
  134   145     1
  136   137     1
  136   138     1
  136   139     1
  139   140     1
  139   141     1
  139   142     1
  142   143     1
  142   144     1
  145   146     1
  145   147     1
  147   148     1
  147   149     1
  149   150     1
  149   151     1
  149   160     1
  151   152     1
  151   153     1
  151   154     1
  154   155     1
  154   156     1
  154   157     1
  157   158     1
  157   159     1
  160   161     1
  160   162     1
  162   163     1
  162   164     1
  164   165     1
  164   166     1
  164   167     1
  167   168     1
  167   169     1
  169   170     1
  169   171     1
  171   172     1
  171   173     1
  171   188     1
  173   174     1
  173   175     1
  173   176     1
  176   177     1
  176   186     1
  177   178     1
  177   179     1
  179   180     1
  179   181     1
  181   182     1
  181   184     1
  182   183     1
  184   185     1
  184   186     1
  186   187     1
  188   189     1
  188   190     1
  190   191     1
  190   192     1
  192   193     1
  192   194     1
  192   205     1
  194   195     1
  194   196     1
  194   197     1
  197   198     1
  197   199     1
  197   200     1
  200   201     1
  200   202     1
  202   203     1
  202   204     1
  205   206     1
  205   207     1
  207   208     1
  207   209     1
  209   210     1
  209   211     1
  209   217     1
  211   212     1
  211   213     1
  211   214     1
  214   215     1
  214   216     1
  217   218     1
  217   219     1
  219   220     1
  219   221     1
  221   222     1
  221   223     1
  221   238     1
  223   224     1
  223   225     1
  223   226     1
  226   227     1
  226   236     1
  227   228     1
  227   229     1
  229   230     1
  229   231     1
  231   232     1
  231   234     1
  232   233     1
  234   235     1
  234   236     1
  236   237     1
  238   239     1
  238   240     1
  240   241     1
  240   242     1
  242   243     1
  242   244     1
  242   253     1
  244   245     1
  244   246     1
  244   247     1
  247   248     1
  247   249     1
  247   250     1
  250   251     1
  250   252     1
  253   254     1
  253   255     1
  255   256     1
  255   265     1
  256   257     1
  256   258     1
  256   259     1
  259   260     1
  259   261     1
  259   262     1
  262   263     1
  262   264     1
  262   265     1
  265   266     1
  265   267     1
  267   268     1
  267   269     1
  269   270     1
  269   271     1
  271   272     1
  271   273     1
  271   282     1
  273   274     1
  273   275     1
  273   276     1
  276   277     1
  276   278     1
  276   279     1
  279   280     1
  279   281     1
  282   283     1
  282   284     1
  284   285     1
  284   286     1
  286   287     1
  286   288     1
  286   292     1
  288   289     1
  288   290     1
  288   291     1
  292   293     1
  292   294     1


[ pairs ]
    1     8     1
    1     9     1
    1    10     1
    1    14     1
    1    15     1
    2     6     1
    2     7     1
    2    13     1
    3     6     1
    3     7     1
    3    13     1
    4     6     1
    4     7     1
    4    13     1
    5    11     1
    5    12     1
    5    16     1
    5    17     1
    6     8     1
    6     9     1
    6    10     1
    6    14     1
    6    15     1
    7    14     1
    7    15     1
    8    11     1
    8    12     1
    8    13     1
    9    11     1
    9    12     1
    9    13     1
   10    13     1
   13    18     1
   13    19     1
   13    27     1
   14    16     1
   14    17     1
   15    20     1
   15    21     1
   15    22     1
   15    28     1
   15    29     1
   16    18     1
   16    19     1
   16    27     1
   17    23     1
   17    24     1
   17    30     1
   17    31     1
   18    20     1
   18    21     1
   18    22     1
   18    28     1
   18    29     1
   19    25     1
   19    26     1
   19    28     1
   19    29     1
   20    23     1
   20    24     1
   20    27     1
   21    23     1
   21    24     1
   21    27     1
   22    27     1
   23    25     1
   23    26     1
   27    32     1
   27    33     1
   27    42     1
   28    30     1
   28    31     1
   29    34     1
   29    35     1
   29    36     1
   29    43     1
   29    44     1
   30    32     1
   30    33     1
   30    42     1
   31    37     1
   31    38     1
   31    39     1
   31    45     1
   31    46     1
   32    34     1
   32    35     1
   32    36     1
   32    43     1
   32    44     1
   33    40     1
   33    41     1
   33    43     1
   33    44     1
   34    37     1
   34    38     1
   34    39     1
   34    42     1
   35    37     1
   35    38     1
   35    39     1
   35    42     1
   36    42     1
   37    40     1
   37    41     1
   38    40     1
   38    41     1
   42    47     1
   42    48     1
   42    52     1
   43    45     1
   43    46     1
   44    49     1
   44    50     1
   44    51     1
   44    53     1
   44    54     1
   45    47     1
   45    48     1
   45    52     1
   46    55     1
   46    56     1
   47    49     1
   47    50     1
   47    51     1
   47    53     1
   47    54     1
   48    53     1
   48    54     1
   49    52     1
   50    52     1
   51    52     1
   52    57     1
   52    58     1
   52    73     1
   53    55     1
   53    56     1
   54    59     1
   54    60     1
   54    61     1
   54    74     1
   54    75     1
   55    57     1
   55    58     1
   55    73     1
   56    62     1
   56    71     1
   56    76     1
   56    77     1
   57    59     1
   57    60     1
   57    61     1
   57    74     1
   57    75     1
   58    63     1
   58    64     1
   58    69     1
   58    72     1
   58    74     1
   58    75     1
   59    62     1
   59    71     1
   59    73     1
   60    62     1
   60    71     1
   60    73     1
   61    65     1
   61    66     1
   61    70     1
   61    73     1
   62    67     1
   62    69     1
   62    72     1
   63    65     1
   63    66     1
   63    71     1
   64    68     1
   64    70     1
   64    71     1
   65    67     1
   65    69     1
   66    72     1
   67    70     1
   67    71     1
   68    69     1
   70    72     1
   73    78     1
   73    79     1
   73    88     1
   74    76     1
   74    77     1
   75    80     1
   75    81     1
   75    82     1
   75    89     1
   75    90     1
   76    78     1
   76    79     1
   76    88     1
   77    83     1
   77    84     1
   77    85     1
   77    91     1
   77    92     1
   78    80     1
   78    81     1
   78    82     1
   78    89     1
   78    90     1
   79    86     1
   79    87     1
   79    89     1
   79    90     1
   80    83     1
   80    84     1
   80    85     1
   80    88     1
   81    83     1
   81    84     1
   81    85     1
   81    88     1
   82    88     1
   83    86     1
   83    87     1
   84    86     1
   84    87     1
   88    93     1
   88    94     1
   88   105     1
   89    91     1
   89    92     1
   90    95     1
   90    96     1
   90    97     1
   90   106     1
   90   107     1
   91    93     1
   91    94     1
   91   105     1
   92    98     1
   92    99     1
   92   100     1
   92   108     1
   92   117     1
   93    95     1
   93    96     1
   93    97     1
   93   106     1
   93   107     1
   94   101     1
   94   106     1
   94   107     1
   95    98     1
   95    99     1
   95   100     1
   95   105     1
   96    98     1
   96    99     1
   96   100     1
   96   105     1
   97   102     1
   97   103     1
   97   104     1
   97   105     1
   98   101     1
   99   101     1
  105   109     1
  105   110     1
  105   111     1
  105   114     1
  105   118     1
  105   119     1
  106   108     1
  106   117     1
  107   112     1
  107   113     1
  107   115     1
  107   116     1
  107   120     1
  107   121     1
  108   115     1
  108   116     1
  108   118     1
  108   119     1
  109   112     1
  109   113     1
  109   114     1
  109   117     1
  110   112     1
  110   113     1
  110   114     1
  110   117     1
  111   118     1
  111   119     1
  112   115     1
  112   116     1
  112   117     1
  113   115     1
  113   116     1
  113   117     1
  114   120     1
  114   121     1
  115   118     1
  115   119     1
  116   118     1
  116   119     1
  117   122     1
  117   123     1
  118   120     1
  118   121     1
  119   124     1
  119   125     1
  119   130     1
  120   122     1
  120   123     1
  121   126     1
  121   127     1
  121   128     1
  121   131     1
  121   132     1
  122   124     1
  122   125     1
  122   130     1
  123   129     1
  123   133     1
  123   134     1
  124   126     1
  124   127     1
  124   128     1
  124   131     1
  124   132     1
  125   131     1
  125   132     1
  126   129     1
  126   130     1
  127   129     1
  127   130     1
  128   130     1
  130   135     1
  130   136     1
  130   145     1
  131   133     1
  131   134     1
  132   137     1
  132   138     1
  132   139     1
  132   146     1
  132   147     1
  133   135     1
  133   136     1
  133   145     1
  134   140     1
  134   141     1
  134   142     1
  134   148     1
  134   149     1
  135   137     1
  135   138     1
  135   139     1
  135   146     1
  135   147     1
  136   143     1
  136   144     1
  136   146     1
  136   147     1
  137   140     1
  137   141     1
  137   142     1
  137   145     1
  138   140     1
  138   141     1
  138   142     1
  138   145     1
  139   145     1
  140   143     1
  140   144     1
  141   143     1
  141   144     1
  145   150     1
  145   151     1
  145   160     1
  146   148     1
  146   149     1
  147   152     1
  147   153     1
  147   154     1
  147   161     1
  147   162     1
  148   150     1
  148   151     1
  148   160     1
  149   155     1
  149   156     1
  149   157     1
  149   163     1
  149   164     1
  150   152     1
  150   153     1
  150   154     1
  150   161     1
  150   162     1
  151   158     1
  151   159     1
  151   161     1
  151   162     1
  152   155     1
  152   156     1
  152   157     1
  152   160     1
  153   155     1
  153   156     1
  153   157     1
  153   160     1
  154   160     1
  155   158     1
  155   159     1
  156   158     1
  156   159     1
  160   165     1
  160   166     1
  160   167     1
  161   163     1
  161   164     1
  162   168     1
  162   169     1
  163   165     1
  163   166     1
  163   167     1
  164   170     1
  164   171     1
  165   168     1
  165   169     1
  166   168     1
  166   169     1
  167   172     1
  167   173     1
  167   188     1
  168   170     1
  168   171     1
  169   174     1
  169   175     1
  169   176     1
  169   189     1
  169   190     1
  170   172     1
  170   173     1
  170   188     1
  171   177     1
  171   186     1
  171   191     1
  171   192     1
  172   174     1
  172   175     1
  172   176     1
  172   189     1
  172   190     1
  173   178     1
  173   179     1
  173   184     1
  173   187     1
  173   189     1
  173   190     1
  174   177     1
  174   186     1
  174   188     1
  175   177     1
  175   186     1
  175   188     1
  176   180     1
  176   181     1
  176   185     1
  176   188     1
  177   182     1
  177   184     1
  177   187     1
  178   180     1
  178   181     1
  178   186     1
  179   183     1
  179   185     1
  179   186     1
  180   182     1
  180   184     1
  181   187     1
  182   185     1
  182   186     1
  183   184     1
  185   187     1
  188   193     1
  188   194     1
  188   205     1
  189   191     1
  189   192     1
  190   195     1
  190   196     1
  190   197     1
  190   206     1
  190   207     1
  191   193     1
  191   194     1
  191   205     1
  192   198     1
  192   199     1
  192   200     1
  192   208     1
  192   209     1
  193   195     1
  193   196     1
  193   197     1
  193   206     1
  193   207     1
  194   201     1
  194   202     1
  194   206     1
  194   207     1
  195   198     1
  195   199     1
  195   200     1
  195   205     1
  196   198     1
  196   199     1
  196   200     1
  196   205     1
  197   203     1
  197   204     1
  197   205     1
  198   201     1
  198   202     1
  199   201     1
  199   202     1
  201   203     1
  201   204     1
  205   210     1
  205   211     1
  205   217     1
  206   208     1
  206   209     1
  207   212     1
  207   213     1
  207   214     1
  207   218     1
  207   219     1
  208   210     1
  208   211     1
  208   217     1
  209   215     1
  209   216     1
  209   220     1
  209   221     1
  210   212     1
  210   213     1
  210   214     1
  210   218     1
  210   219     1
  211   218     1
  211   219     1
  212   215     1
  212   216     1
  212   217     1
  213   215     1
  213   216     1
  213   217     1
  214   217     1
  217   222     1
  217   223     1
  217   238     1
  218   220     1
  218   221     1
  219   224     1
  219   225     1
  219   226     1
  219   239     1
  219   240     1
  220   222     1
  220   223     1
  220   238     1
  221   227     1
  221   236     1
  221   241     1
  221   242     1
  222   224     1
  222   225     1
  222   226     1
  222   239     1
  222   240     1
  223   228     1
  223   229     1
  223   234     1
  223   237     1
  223   239     1
  223   240     1
  224   227     1
  224   236     1
  224   238     1
  225   227     1
  225   236     1
  225   238     1
  226   230     1
  226   231     1
  226   235     1
  226   238     1
  227   232     1
  227   234     1
  227   237     1
  228   230     1
  228   231     1
  228   236     1
  229   233     1
  229   235     1
  229   236     1
  230   232     1
  230   234     1
  231   237     1
  232   235     1
  232   236     1
  233   234     1
  235   237     1
  238   243     1
  238   244     1
  238   253     1
  239   241     1
  239   242     1
  240   245     1
  240   246     1
  240   247     1
  240   254     1
  240   255     1
  241   243     1
  241   244     1
  241   253     1
  242   248     1
  242   249     1
  242   250     1
  242   256     1
  242   265     1
  243   245     1
  243   246     1
  243   247     1
  243   254     1
  243   255     1
  244   251     1
  244   252     1
  244   254     1
  244   255     1
  245   248     1
  245   249     1
  245   250     1
  245   253     1
  246   248     1
  246   249     1
  246   250     1
  246   253     1
  247   253     1
  248   251     1
  248   252     1
  249   251     1
  249   252     1
  253   257     1
  253   258     1
  253   259     1
  253   262     1
  253   266     1
  253   267     1
  254   256     1
  254   265     1
  255   260     1
  255   261     1
  255   263     1
  255   264     1
  255   268     1
  255   269     1
  256   263     1
  256   264     1
  256   266     1
  256   267     1
  257   260     1
  257   261     1
  257   262     1
  257   265     1
  258   260     1
  258   261     1
  258   262     1
  258   265     1
  259   266     1
  259   267     1
  260   263     1
  260   264     1
  260   265     1
  261   263     1
  261   264     1
  261   265     1
  262   268     1
  262   269     1
  263   266     1
  263   267     1
  264   266     1
  264   267     1
  265   270     1
  265   271     1
  266   268     1
  266   269     1
  267   272     1
  267   273     1
  267   282     1
  268   270     1
  268   271     1
  269   274     1
  269   275     1
  269   276     1
  269   283     1
  269   284     1
  270   272     1
  270   273     1
  270   282     1
  271   277     1
  271   278     1
  271   279     1
  271   285     1
  271   286     1
  272   274     1
  272   275     1
  272   276     1
  272   283     1
  272   284     1
  273   280     1
  273   281     1
  273   283     1
  273   284     1
  274   277     1
  274   278     1
  274   279     1
  274   282     1
  275   277     1
  275   278     1
  275   279     1
  275   282     1
  276   282     1
  277   280     1
  277   281     1
  278   280     1
  278   281     1
  282   287     1
  282   288     1
  282   292     1
  283   285     1
  283   286     1
  284   289     1
  284   290     1
  284   291     1
  284   293     1
  284   294     1
  285   287     1
  285   288     1
  285   292     1
  287   289     1
  287   290     1
  287   291     1
  287   293     1
  287   294     1
  288   293     1
  288   294     1
  289   292     1
  290   292     1
  291   292     1


[ angles ]
    2     1     3     1
    2     1     4     1
    2     1     5     1
    3     1     4     1
    3     1     5     1
    4     1     5     1
    1     5     6     1
    1     5     7     1
    1     5    13     1
    6     5     7     1
    6     5    13     1
    7     5    13     1
    5     7     8     1
    5     7     9     1
    5     7    10     1
    8     7     9     1
    8     7    10     1
    9     7    10     1
    7    10    11     1
    7    10    12     1
   11    10    12     1
    5    13    14     1
    5    13    15     1
   14    13    15     1
   13    15    16     1
   13    15    17     1
   16    15    17     1
   15    17    18     1
   15    17    19     1
   15    17    27     1
   18    17    19     1
   18    17    27     1
   19    17    27     1
   17    19    20     1
   17    19    21     1
   17    19    22     1
   20    19    21     1
   20    19    22     1
   21    19    22     1
   19    22    23     1
   19    22    24     1
   23    22    24     1
   22    24    25     1
   22    24    26     1
   25    24    26     1
   17    27    28     1
   17    27    29     1
   28    27    29     1
   27    29    30     1
   27    29    31     1
   30    29    31     1
   29    31    32     1
   29    31    33     1
   29    31    42     1
   32    31    33     1
   32    31    42     1
   33    31    42     1
   31    33    34     1
   31    33    35     1
   31    33    36     1
   34    33    35     1
   34    33    36     1
   35    33    36     1
   33    36    37     1
   33    36    38     1
   33    36    39     1
   37    36    38     1
   37    36    39     1
   38    36    39     1
   36    39    40     1
   36    39    41     1
   40    39    41     1
   31    42    43     1
   31    42    44     1
   43    42    44     1
   42    44    45     1
   42    44    46     1
   45    44    46     1
   44    46    47     1
   44    46    48     1
   44    46    52     1
   47    46    48     1
   47    46    52     1
   48    46    52     1
   46    48    49     1
   46    48    50     1
   46    48    51     1
   49    48    50     1
   49    48    51     1
   50    48    51     1
   46    52    53     1
   46    52    54     1
   53    52    54     1
   52    54    55     1
   52    54    56     1
   55    54    56     1
   54    56    57     1
   54    56    58     1
   54    56    73     1
   57    56    58     1
   57    56    73     1
   58    56    73     1
   56    58    59     1
   56    58    60     1
   56    58    61     1
   59    58    60     1
   59    58    61     1
   60    58    61     1
   58    61    62     1
   58    61    71     1
   62    61    71     1
   61    62    63     1
   61    62    64     1
   63    62    64     1
   62    64    65     1
   62    64    66     1
   65    64    66     1
   64    66    67     1
   64    66    69     1
   67    66    69     1
   66    67    68     1
   66    69    70     1
   66    69    71     1
   70    69    71     1
   61    71    69     1
   61    71    72     1
   69    71    72     1
   56    73    74     1
   56    73    75     1
   74    73    75     1
   73    75    76     1
   73    75    77     1
   76    75    77     1
   75    77    78     1
   75    77    79     1
   75    77    88     1
   78    77    79     1
   78    77    88     1
   79    77    88     1
   77    79    80     1
   77    79    81     1
   77    79    82     1
   80    79    81     1
   80    79    82     1
   81    79    82     1
   79    82    83     1
   79    82    84     1
   79    82    85     1
   83    82    84     1
   83    82    85     1
   84    82    85     1
   82    85    86     1
   82    85    87     1
   86    85    87     1
   77    88    89     1
   77    88    90     1
   89    88    90     1
   88    90    91     1
   88    90    92     1
   91    90    92     1
   90    92    93     1
   90    92    94     1
   90    92   105     1
   93    92    94     1
   93    92   105     1
   94    92   105     1
   92    94    95     1
   92    94    96     1
   92    94    97     1
   95    94    96     1
   95    94    97     1
   96    94    97     1
   94    97    98     1
   94    97    99     1
   94    97   100     1
   98    97    99     1
   98    97   100     1
   99    97   100     1
   97   100   101     1
  100   101   102     1
  100   101   103     1
  100   101   104     1
  102   101   103     1
  102   101   104     1
  103   101   104     1
   92   105   106     1
   92   105   107     1
  106   105   107     1
  105   107   108     1
  105   107   117     1
  108   107   117     1
  107   108   109     1
  107   108   110     1
  107   108   111     1
  109   108   110     1
  109   108   111     1
  110   108   111     1
  108   111   112     1
  108   111   113     1
  108   111   114     1
  112   111   113     1
  112   111   114     1
  113   111   114     1
  111   114   115     1
  111   114   116     1
  111   114   117     1
  115   114   116     1
  115   114   117     1
  116   114   117     1
  107   117   114     1
  107   117   118     1
  107   117   119     1
  114   117   118     1
  114   117   119     1
  118   117   119     1
  117   119   120     1
  117   119   121     1
  120   119   121     1
  119   121   122     1
  119   121   123     1
  122   121   123     1
  121   123   124     1
  121   123   125     1
  121   123   130     1
  124   123   125     1
  124   123   130     1
  125   123   130     1
  123   125   126     1
  123   125   127     1
  123   125   128     1
  126   125   127     1
  126   125   128     1
  127   125   128     1
  125   128   129     1
  123   130   131     1
  123   130   132     1
  131   130   132     1
  130   132   133     1
  130   132   134     1
  133   132   134     1
  132   134   135     1
  132   134   136     1
  132   134   145     1
  135   134   136     1
  135   134   145     1
  136   134   145     1
  134   136   137     1
  134   136   138     1
  134   136   139     1
  137   136   138     1
  137   136   139     1
  138   136   139     1
  136   139   140     1
  136   139   141     1
  136   139   142     1
  140   139   141     1
  140   139   142     1
  141   139   142     1
  139   142   143     1
  139   142   144     1
  143   142   144     1
  134   145   146     1
  134   145   147     1
  146   145   147     1
  145   147   148     1
  145   147   149     1
  148   147   149     1
  147   149   150     1
  147   149   151     1
  147   149   160     1
  150   149   151     1
  150   149   160     1
  151   149   160     1
  149   151   152     1
  149   151   153     1
  149   151   154     1
  152   151   153     1
  152   151   154     1
  153   151   154     1
  151   154   155     1
  151   154   156     1
  151   154   157     1
  155   154   156     1
  155   154   157     1
  156   154   157     1
  154   157   158     1
  154   157   159     1
  158   157   159     1
  149   160   161     1
  149   160   162     1
  161   160   162     1
  160   162   163     1
  160   162   164     1
  163   162   164     1
  162   164   165     1
  162   164   166     1
  162   164   167     1
  165   164   166     1
  165   164   167     1
  166   164   167     1
  164   167   168     1
  164   167   169     1
  168   167   169     1
  167   169   170     1
  167   169   171     1
  170   169   171     1
  169   171   172     1
  169   171   173     1
  169   171   188     1
  172   171   173     1
  172   171   188     1
  173   171   188     1
  171   173   174     1
  171   173   175     1
  171   173   176     1
  174   173   175     1
  174   173   176     1
  175   173   176     1
  173   176   177     1
  173   176   186     1
  177   176   186     1
  176   177   178     1
  176   177   179     1
  178   177   179     1
  177   179   180     1
  177   179   181     1
  180   179   181     1
  179   181   182     1
  179   181   184     1
  182   181   184     1
  181   182   183     1
  181   184   185     1
  181   184   186     1
  185   184   186     1
  176   186   184     1
  176   186   187     1
  184   186   187     1
  171   188   189     1
  171   188   190     1
  189   188   190     1
  188   190   191     1
  188   190   192     1
  191   190   192     1
  190   192   193     1
  190   192   194     1
  190   192   205     1
  193   192   194     1
  193   192   205     1
  194   192   205     1
  192   194   195     1
  192   194   196     1
  192   194   197     1
  195   194   196     1
  195   194   197     1
  196   194   197     1
  194   197   198     1
  194   197   199     1
  194   197   200     1
  198   197   199     1
  198   197   200     1
  199   197   200     1
  197   200   201     1
  197   200   202     1
  201   200   202     1
  200   202   203     1
  200   202   204     1
  203   202   204     1
  192   205   206     1
  192   205   207     1
  206   205   207     1
  205   207   208     1
  205   207   209     1
  208   207   209     1
  207   209   210     1
  207   209   211     1
  207   209   217     1
  210   209   211     1
  210   209   217     1
  211   209   217     1
  209   211   212     1
  209   211   213     1
  209   211   214     1
  212   211   213     1
  212   211   214     1
  213   211   214     1
  211   214   215     1
  211   214   216     1
  215   214   216     1
  209   217   218     1
  209   217   219     1
  218   217   219     1
  217   219   220     1
  217   219   221     1
  220   219   221     1
  219   221   222     1
  219   221   223     1
  219   221   238     1
  222   221   223     1
  222   221   238     1
  223   221   238     1
  221   223   224     1
  221   223   225     1
  221   223   226     1
  224   223   225     1
  224   223   226     1
  225   223   226     1
  223   226   227     1
  223   226   236     1
  227   226   236     1
  226   227   228     1
  226   227   229     1
  228   227   229     1
  227   229   230     1
  227   229   231     1
  230   229   231     1
  229   231   232     1
  229   231   234     1
  232   231   234     1
  231   232   233     1
  231   234   235     1
  231   234   236     1
  235   234   236     1
  226   236   234     1
  226   236   237     1
  234   236   237     1
  221   238   239     1
  221   238   240     1
  239   238   240     1
  238   240   241     1
  238   240   242     1
  241   240   242     1
  240   242   243     1
  240   242   244     1
  240   242   253     1
  243   242   244     1
  243   242   253     1
  244   242   253     1
  242   244   245     1
  242   244   246     1
  242   244   247     1
  245   244   246     1
  245   244   247     1
  246   244   247     1
  244   247   248     1
  244   247   249     1
  244   247   250     1
  248   247   249     1
  248   247   250     1
  249   247   250     1
  247   250   251     1
  247   250   252     1
  251   250   252     1
  242   253   254     1
  242   253   255     1
  254   253   255     1
  253   255   256     1
  253   255   265     1
  256   255   265     1
  255   256   257     1
  255   256   258     1
  255   256   259     1
  257   256   258     1
  257   256   259     1
  258   256   259     1
  256   259   260     1
  256   259   261     1
  256   259   262     1
  260   259   261     1
  260   259   262     1
  261   259   262     1
  259   262   263     1
  259   262   264     1
  259   262   265     1
  263   262   264     1
  263   262   265     1
  264   262   265     1
  255   265   262     1
  255   265   266     1
  255   265   267     1
  262   265   266     1
  262   265   267     1
  266   265   267     1
  265   267   268     1
  265   267   269     1
  268   267   269     1
  267   269   270     1
  267   269   271     1
  270   269   271     1
  269   271   272     1
  269   271   273     1
  269   271   282     1
  272   271   273     1
  272   271   282     1
  273   271   282     1
  271   273   274     1
  271   273   275     1
  271   273   276     1
  274   273   275     1
  274   273   276     1
  275   273   276     1
  273   276   277     1
  273   276   278     1
  273   276   279     1
  277   276   278     1
  277   276   279     1
  278   276   279     1
  276   279   280     1
  276   279   281     1
  280   279   281     1
  271   282   283     1
  271   282   284     1
  283   282   284     1
  282   284   285     1
  282   284   286     1
  285   284   286     1
  284   286   287     1
  284   286   288     1
  284   286   292     1
  287   286   288     1
  287   286   292     1
  288   286   292     1
  286   288   289     1
  286   288   290     1
  286   288   291     1
  289   288   290     1
  289   288   291     1
  290   288   291     1
  286   292   293     1
  286   292   294     1
  293   292   294     1


[ dihedrals ]
    5    15    13    14     4  
    7    11    10    12     4  
   13    17    15    16     4  
   13    15    17    27     4     90.0        1.67360    2
   15    17    27    29     4     90.0        0.2385     3
   15    17    27    29     4     90.0        0.1046     4
   15    17    27    29     4     90.0        -0.0460    5
   15    17    27    29     4     160.888      2.71960    1
   15    17    27    29     4     90.0        -1.0669    1
   15    17    27    29     4     90.0        0.3138     2
   17    29    27    28     4  
   19    24    22    23     4  
   22    25    24    26     4  
   27    31    29    30     4  
   27    29    31    42     4     90.0        1.67360    2
   29    31    42    44     4     160.888      2.71960    1
   29    31    42    44     4     90.0        -1.0669    1
   29    31    42    44     4     90.0        0.3138     2
   29    31    42    44     4     90.0        0.2385     3
   29    31    42    44     4     90.0        0.1046     4
   29    31    42    44     4     90.0        -0.0460    5
   31    44    42    43     4  
   36    40    39    41     4  
   42    46    44    45     4  
   42    44    46    52     4     90.0        1.67360    2
   44    46    52    54     4     90.0        0.3138     2
   44    46    52    54     4     90.0        0.1046     4
   44    46    52    54     4     90.0        -0.0460    5
   44    46    52    54     4     90.0        0.2385     3
   44    46    52    54     4     160.888      2.71960    1
   44    46    52    54     4     90.0        -1.0669    1
   46    54    52    53     4  
   52    56    54    55     4  
   52    54    56    73     4     90.0        1.67360    2
   54    56    73    75     4     90.0        -1.0669    1
   54    56    73    75     4     90.0        0.3138     2
   54    56    73    75     4     90.0        0.2385     3
   54    56    73    75     4     90.0        0.1046     4
   54    56    73    75     4     90.0        -0.0460    5
   54    56    73    75     4     160.888      2.71960    1
   56    75    73    74     4  
   58    61    71    62     4  
   61    64    62    63     4  
   61    69    71    72     4  
   62    66    64    65     4  
   64    69    66    67     4  
   66    71    69    70     4  
   73    77    75    76     4  
   73    75    77    88     4     90.0        1.67360    2
   75    77    88    90     4     160.888      2.71960    1
   75    77    88    90     4     90.0        -1.0669    1
   75    77    88    90     4     90.0        0.3138     2
   75    77    88    90     4     90.0        0.1046     4
   75    77    88    90     4     90.0        -0.0460    5
   75    77    88    90     4     90.0        0.2385     3
   77    90    88    89     4  
   82    86    85    87     4  
   88    92    90    91     4  
   88    90    92   105     4     90.0        1.67360    2
   90    92   105   107     4     90.0        -1.0669    1
   90    92   105   107     4     90.0        0.3138     2
   90    92   105   107     4     90.0        0.2385     3
   90    92   105   107     4     90.0        0.1046     4
   90    92   105   107     4     90.0        -0.0460    5
   90    92   105   107     4     160.888      2.71960    1
   92   107   105   106     4  
  105   108   107   117     4  
  117   121   119   120     4  
  119   123   121   122     4  
  119   121   123   130     4     90.0        1.67360    2
  121   123   130   132     4     90.0        0.1046     4
  121   123   130   132     4     90.0        -0.0460    5
  121   123   130   132     4     90.0        0.2385     3
  121   123   130   132     4     160.888      2.71960    1
  121   123   130   132     4     90.0        -1.0669    1
  121   123   130   132     4     90.0        0.3138     2
  123   132   130   131     4  
  130   134   132   133     4  
  130   132   134   145     4     90.0        1.67360    2
  132   134   145   147     4     90.0        -1.0669    1
  132   134   145   147     4     90.0        0.3138     2
  132   134   145   147     4     90.0        0.2385     3
  132   134   145   147     4     90.0        0.1046     4
  132   134   145   147     4     90.0        -0.0460    5
  132   134   145   147     4     160.888      2.71960    1
  134   147   145   146     4  
  139   143   142   144     4  
  145   149   147   148     4  
  145   147   149   160     4     90.0        1.67360    2
  147   149   160   162     4     90.0        -1.0669    1
  147   149   160   162     4     90.0        0.3138     2
  147   149   160   162     4     90.0        0.2385     3
  147   149   160   162     4     90.0        0.1046     4
  147   149   160   162     4     90.0        -0.0460    5
  147   149   160   162     4     160.888      2.71960    1
  149   162   160   161     4  
  154   158   157   159     4  
  160   164   162   163     4  
  164   169   167   168     4  
  167   171   169   170     4  
  167   169   171   188     4     90.0        1.67360    2
  169   171   188   190     4     160.888      2.71960    1
  169   171   188   190     4     90.0        -1.0669    1
  169   171   188   190     4     90.0        0.3138     2
  169   171   188   190     4     90.0        0.2385     3
  169   171   188   190     4     90.0        0.1046     4
  169   171   188   190     4     90.0        -0.0460    5
  171   190   188   189     4  
  173   176   186   177     4  
  176   179   177   178     4  
  176   184   186   187     4  
  177   181   179   180     4  
  179   184   181   182     4  
  181   186   184   185     4  
  188   192   190   191     4  
  188   190   192   205     4     90.0        1.67360    2
  190   192   205   207     4     90.0        -1.0669    1
  190   192   205   207     4     160.888      2.71960    1
  190   192   205   207     4     90.0        0.3138     2
  190   192   205   207     4     90.0        0.2385     3
  190   192   205   207     4     90.0        0.1046     4
  190   192   205   207     4     90.0        -0.0460    5
  192   207   205   206     4  
  197   202   200   201     4  
  200   203   202   204     4  
  205   209   207   208     4  
  205   207   209   217     4     90.0        1.67360    2
  207   209   217   219     4     160.888      2.71960    1
  207   209   217   219     4     90.0        0.2385     3
  207   209   217   219     4     90.0        0.1046     4
  207   209   217   219     4     90.0        -0.0460    5
  207   209   217   219     4     90.0        0.3138     2
  207   209   217   219     4     90.0        -1.0669    1
  209   219   217   218     4  
  211   215   214   216     4  
  217   221   219   220     4  
  217   219   221   238     4     90.0        1.67360    2
  219   221   238   240     4     90.0        0.3138     2
  219   221   238   240     4     160.888      2.71960    1
  219   221   238   240     4     90.0        -1.0669    1
  219   221   238   240     4     90.0        0.2385     3
  219   221   238   240     4     90.0        0.1046     4
  219   221   238   240     4     90.0        -0.0460    5
  221   240   238   239     4  
  223   226   236   227     4  
  226   229   227   228     4  
  226   234   236   237     4  
  227   231   229   230     4  
  229   234   231   232     4  
  231   236   234   235     4  
  238   242   240   241     4  
  238   240   242   253     4     90.0        1.67360    2
  240   242   253   255     4     90.0        0.3138     2
  240   242   253   255     4     90.0        0.2385     3
  240   242   253   255     4     90.0        0.1046     4
  240   242   253   255     4     90.0        -0.0460    5
  240   242   253   255     4     160.888      2.71960    1
  240   242   253   255     4     90.0        -1.0669    1
  242   255   253   254     4  
  247   251   250   252     4  
  253   256   255   265     4  
  265   269   267   268     4  
  267   271   269   270     4  
  267   269   271   282     4     90.0        1.67360    2
  269   271   282   284     4     160.888      2.71960    1
  269   271   282   284     4     90.0        -1.0669    1
  269   271   282   284     4     90.0        0.3138     2
  269   271   282   284     4     90.0        0.2385     3
  269   271   282   284     4     90.0        0.1046     4
  269   271   282   284     4     90.0        -0.0460    5
  271   284   282   283     4  
  276   280   279   281     4  
  282   286   284   285     4  
  282   284   286   292     4     90.0        1.67360    2
  286   293   292   294     4  





[ moleculetype ]
;name            nrexcl
 L47              3

[ atoms ]
     1   c3     1   L47     C    1    -0.171100     12.01000 ; qtot -0.171
     2   hc     1   L47     H    2     0.082033      1.00800 ; qtot -0.089
     3   hc     1   L47    H1    3     0.082033      1.00800 ; qtot -0.007
     4   hc     1   L47    H2    4     0.082033      1.00800 ; qtot 0.075
     5    c     1   L47    C1    5     0.681100     12.01000 ; qtot 0.756
     6    o     1   L47     O    6    -0.559100     16.00000 ; qtot 0.197
     7    n     1   L47     N    7    -0.382000     14.01000 ; qtot -0.185
     8   c3     1   L47    C2    8     0.082000     12.01000 ; qtot -0.103
     9   h1     1   L47    H3    9     0.067200      1.00800 ; qtot -0.036
    10   h1     1   L47    H4   10     0.067200      1.00800 ; qtot 0.031
    11   c3     1   L47    C3   11    -0.040100     12.01000 ; qtot -0.009
    12   hc     1   L47    H5   12     0.078700      1.00800 ; qtot 0.070
    13   hc     1   L47    H6   13     0.078700      1.00800 ; qtot 0.149
    14   ca     1   L47    C4   14    -0.167300     12.01000 ; qtot -0.019
    15   ca     1   L47    C5   15     0.173600     12.01000 ; qtot 0.155
    16   ca     1   L47    C6   16    -0.185000     12.01000 ; qtot -0.030
    17   ha     1   L47    H7   17     0.191000      1.00800 ; qtot 0.161
    18   ca     1   L47    C7   18     0.023000     12.01000 ; qtot 0.184
    19   ha     1   L47    H8   19     0.143000      1.00800 ; qtot 0.327
    20   ca     1   L47    C8   20    -0.498500     12.01000 ; qtot -0.172
    21   ca     1   L47    C9   21     0.038000     12.01000 ; qtot -0.134
    22   ha     1   L47    H9   22     0.161000      1.00800 ; qtot 0.027
    23   sy     1   L47     S   23     1.523201     32.06000 ; qtot 1.551
    24    o     1   L47    O1   24    -0.667800     16.00000 ; qtot 0.883
    25    o     1   L47    O2   25    -0.667800     16.00000 ; qtot 0.215
    26   n3     1   L47    N1   26    -0.795500     14.01000 ; qtot -0.580
    27   c3     1   L47   C10   27     0.195800     12.01000 ; qtot -0.385
    28   h1     1   L47   H10   28     0.089200      1.00800 ; qtot -0.295
    29   h1     1   L47   H11   29     0.089200      1.00800 ; qtot -0.206
    30   c3     1   L47   C11   30    -0.140400     12.01000 ; qtot -0.347
    31   hc     1   L47   H12   31     0.094200      1.00800 ; qtot -0.252
    32   hc     1   L47   H13   32     0.094200      1.00800 ; qtot -0.158
    33   c3     1   L47   C12   33     0.113800     12.01000 ; qtot -0.044
    34   hx     1   L47   H14   34     0.099700      1.00800 ; qtot 0.055
    35   hx     1   L47   H15   35     0.099700      1.00800 ; qtot 0.155
    36   n4     1   L47    N2   36    -0.762000     14.01000 ; qtot -0.607
    37   hn     1   L47   H16   37     0.471300      1.00800 ; qtot -0.136
    38   hn     1   L47   H17   38     0.471300      1.00800 ; qtot 0.336
    39   c3     1   L47   C13   39     0.070800     12.01000 ; qtot 0.406
    40   hx     1   L47   H18   40     0.103200      1.00800 ; qtot 0.510
    41   hx     1   L47   H19   41     0.103200      1.00800 ; qtot 0.613
    42   c3     1   L47   C14   42     0.210800     12.01000 ; qtot 0.824
    43   h1     1   L47   H20   43     0.088200      1.00800 ; qtot 0.912
    44   h1     1   L47   H21   44     0.088200      1.00800 ; qtot 1.000


[ bonds ]
     1      2   1    1.0969e-01    2.7665e+05 ;      C - H     
     1      3   1    1.0969e-01    2.7665e+05 ;      C - H1    
     1      4   1    1.0969e-01    2.7665e+05 ;      C - H2    
     1      5   1    1.5241e-01    2.6192e+05 ;      C - C1    
     5      6   1    1.2183e-01    5.3363e+05 ;     C1 - O     
     5      7   1    1.3789e-01    3.5782e+05 ;     C1 - N     
     7      8   1    1.4619e-01    2.7506e+05 ;      N - C2    
     7     15   1    1.4121e-01    3.2150e+05 ;      N - C5    
     8      9   1    1.0969e-01    2.7665e+05 ;     C2 - H3    
     8     10   1    1.0969e-01    2.7665e+05 ;     C2 - H4    
     8     11   1    1.5375e-01    2.5179e+05 ;     C2 - C3    
    11     12   1    1.0969e-01    2.7665e+05 ;     C3 - H5    
    11     13   1    1.0969e-01    2.7665e+05 ;     C3 - H6    
    11     14   1    1.5156e-01    2.6861e+05 ;     C3 - C4    
    14     15   1    1.3984e-01    3.8585e+05 ;     C4 - C5    
    14     21   1    1.3984e-01    3.8585e+05 ;     C4 - C9    
    15     16   1    1.3984e-01    3.8585e+05 ;     C5 - C6    
    16     17   1    1.0860e-01    2.8937e+05 ;     C6 - H7    
    16     18   1    1.3984e-01    3.8585e+05 ;     C6 - C7    
    18     19   1    1.0860e-01    2.8937e+05 ;     C7 - H8    
    18     20   1    1.3984e-01    3.8585e+05 ;     C7 - C8    
    20     21   1    1.3984e-01    3.8585e+05 ;     C8 - C9    
    20     23   1    1.7909e-01    2.0368e+05 ;     C8 - S     
    21     22   1    1.0860e-01    2.8937e+05 ;     C9 - H9    
    23     24   1    1.4660e-01    4.1254e+05 ;      S - O1    
    23     25   1    1.4660e-01    4.1254e+05 ;      S - O2    
    23     26   1    1.6962e-01    2.4886e+05 ;      S - N1    
    26     27   1    1.4647e-01    2.7271e+05 ;     N1 - C10   
    26     42   1    1.4647e-01    2.7271e+05 ;     N1 - C14   
    27     28   1    1.0969e-01    2.7665e+05 ;    C10 - H10   
    27     29   1    1.0969e-01    2.7665e+05 ;    C10 - H11   
    27     30   1    1.5375e-01    2.5179e+05 ;    C10 - C11   
    30     31   1    1.0969e-01    2.7665e+05 ;    C11 - H12   
    30     32   1    1.0969e-01    2.7665e+05 ;    C11 - H13   
    30     33   1    1.5375e-01    2.5179e+05 ;    C11 - C12   
    33     34   1    1.0910e-01    2.8342e+05 ;    C12 - H14   
    33     35   1    1.0910e-01    2.8342e+05 ;    C12 - H15   
    33     36   1    1.5110e-01    2.3707e+05 ;    C12 - N2    
    36     37   1    1.0304e-01    3.1229e+05 ;     N2 - H16   
    36     38   1    1.0304e-01    3.1229e+05 ;     N2 - H17   
    36     39   1    1.5110e-01    2.3707e+05 ;     N2 - C13   
    39     40   1    1.0910e-01    2.8342e+05 ;    C13 - H18   
    39     41   1    1.0910e-01    2.8342e+05 ;    C13 - H19   
    39     42   1    1.5375e-01    2.5179e+05 ;    C13 - C14   
    42     43   1    1.0969e-01    2.7665e+05 ;    C14 - H20   
    42     44   1    1.0969e-01    2.7665e+05 ;    C14 - H21   


[ pairs ]
     1      8      1 ;      C - C2    
     1     15      1 ;      C - C5    
     2      6      1 ;      H - O     
     2      7      1 ;      H - N     
     3      6      1 ;     H1 - O     
     3      7      1 ;     H1 - N     
     4      6      1 ;     H2 - O     
     4      7      1 ;     H2 - N     
     5      9      1 ;     C1 - H3    
     5     10      1 ;     C1 - H4    
     5     11      1 ;     C1 - C3    
     5     14      1 ;     C1 - C4    
     5     16      1 ;     C1 - C6    
     6      8      1 ;      O - C2    
     6     15      1 ;      O - C5    
     7     12      1 ;      N - H5    
     7     13      1 ;      N - H6    
     7     17      1 ;      N - H7    
     7     18      1 ;      N - C7    
     7     21      1 ;      N - C9    
     8     16      1 ;     C2 - C6    
     8     21      1 ;     C2 - C9    
     9     12      1 ;     H3 - H5    
     9     13      1 ;     H3 - H6    
     9     14      1 ;     H3 - C4    
     9     15      1 ;     H3 - C5    
    10     12      1 ;     H4 - H5    
    10     13      1 ;     H4 - H6    
    10     14      1 ;     H4 - C4    
    10     15      1 ;     H4 - C5    
    11     16      1 ;     C3 - C6    
    11     20      1 ;     C3 - C8    
    11     22      1 ;     C3 - H9    
    12     15      1 ;     H5 - C5    
    12     21      1 ;     H5 - C9    
    13     15      1 ;     H6 - C5    
    13     21      1 ;     H6 - C9    
    14     17      1 ;     C4 - H7    
    14     18      1 ;     C4 - C7    
    14     23      1 ;     C4 - S     
    15     19      1 ;     C5 - H8    
    15     20      1 ;     C5 - C8    
    15     22      1 ;     C5 - H9    
    16     21      1 ;     C6 - C9    
    16     23      1 ;     C6 - S     
    17     19      1 ;     H7 - H8    
    17     20      1 ;     H7 - C8    
    18     22      1 ;     C7 - H9    
    18     24      1 ;     C7 - O1    
    18     25      1 ;     C7 - O2    
    18     26      1 ;     C7 - N1    
    19     21      1 ;     H8 - C9    
    19     23      1 ;     H8 - S     
    20     27      1 ;     C8 - C10   
    20     42      1 ;     C8 - C14   
    21     24      1 ;     C9 - O1    
    21     25      1 ;     C9 - O2    
    21     26      1 ;     C9 - N1    
    22     23      1 ;     H9 - S     
    23     28      1 ;      S - H10   
    23     29      1 ;      S - H11   
    23     30      1 ;      S - C11   
    23     39      1 ;      S - C13   
    23     43      1 ;      S - H20   
    23     44      1 ;      S - H21   
    24     27      1 ;     O1 - C10   
    24     42      1 ;     O1 - C14   
    25     27      1 ;     O2 - C10   
    25     42      1 ;     O2 - C14   
    26     31      1 ;     N1 - H12   
    26     32      1 ;     N1 - H13   
    26     33      1 ;     N1 - C12   
    26     36      1 ;     N1 - N2    
    26     40      1 ;     N1 - H18   
    26     41      1 ;     N1 - H19   
    27     34      1 ;    C10 - H14   
    27     35      1 ;    C10 - H15   
    27     36      1 ;    C10 - N2    
    27     39      1 ;    C10 - C13   
    27     43      1 ;    C10 - H20   
    27     44      1 ;    C10 - H21   
    28     31      1 ;    H10 - H12   
    28     32      1 ;    H10 - H13   
    28     33      1 ;    H10 - C12   
    28     42      1 ;    H10 - C14   
    29     31      1 ;    H11 - H12   
    29     32      1 ;    H11 - H13   
    29     33      1 ;    H11 - C12   
    29     42      1 ;    H11 - C14   
    30     37      1 ;    C11 - H16   
    30     38      1 ;    C11 - H17   
    30     39      1 ;    C11 - C13   
    30     42      1 ;    C11 - C14   
    31     34      1 ;    H12 - H14   
    31     35      1 ;    H12 - H15   
    31     36      1 ;    H12 - N2    
    32     34      1 ;    H13 - H14   
    32     35      1 ;    H13 - H15   
    32     36      1 ;    H13 - N2    
    33     40      1 ;    C12 - H18   
    33     41      1 ;    C12 - H19   
    33     42      1 ;    C12 - C14   
    34     37      1 ;    H14 - H16   
    34     38      1 ;    H14 - H17   
    34     39      1 ;    H14 - C13   
    35     37      1 ;    H15 - H16   
    35     38      1 ;    H15 - H17   
    35     39      1 ;    H15 - C13   
    36     43      1 ;     N2 - H20   
    36     44      1 ;     N2 - H21   
    37     40      1 ;    H16 - H18   
    37     41      1 ;    H16 - H19   
    37     42      1 ;    H16 - C14   
    38     40      1 ;    H17 - H18   
    38     41      1 ;    H17 - H19   
    38     42      1 ;    H17 - C14   
    40     43      1 ;    H18 - H20   
    40     44      1 ;    H18 - H21   
    41     43      1 ;    H19 - H20   
    41     44      1 ;    H19 - H21   


[ angles ]
     1      5      6      1    1.2320e+02    5.6400e+02 ;      C - C1     - O     
     1      5      7      1    1.1518e+02    5.5898e+02 ;      C - C1     - N     
     2      1      3      1    1.0758e+02    3.2970e+02 ;      H - C      - H1    
     2      1      4      1    1.0758e+02    3.2970e+02 ;      H - C      - H2    
     2      1      5      1    1.0877e+02    3.9246e+02 ;      H - C      - C1    
     3      1      4      1    1.0758e+02    3.2970e+02 ;     H1 - C      - H2    
     3      1      5      1    1.0877e+02    3.9246e+02 ;     H1 - C      - C1    
     4      1      5      1    1.0877e+02    3.9246e+02 ;     H2 - C      - C1    
     5      7      8      1    1.2069e+02    5.3053e+02 ;     C1 - N      - C2    
     5      7     15      1    1.2371e+02    5.3388e+02 ;     C1 - N      - C5    
     6      5      7      1    1.2305e+02    6.2091e+02 ;      O - C1     - N     
     7      8      9      1    1.0888e+02    4.1673e+02 ;      N - C2     - H3    
     7      8     10      1    1.0888e+02    4.1673e+02 ;      N - C2     - H4    
     7      8     11      1    1.1161e+02    5.5145e+02 ;      N - C2     - C3    
     7     15     14      1    1.2019e+02    5.6819e+02 ;      N - C5     - C4    
     7     15     16      1    1.2019e+02    5.6819e+02 ;      N - C5     - C6    
     8      7     15      1    1.1983e+02    5.2718e+02 ;     C2 - N      - C5    
     8     11     12      1    1.0980e+02    3.8744e+02 ;     C2 - C3     - H5    
     8     11     13      1    1.0980e+02    3.8744e+02 ;     C2 - C3     - H6    
     8     11     14      1    1.1207e+02    5.2802e+02 ;     C2 - C3     - C4    
     9      8     10      1    1.0846e+02    3.2803e+02 ;     H3 - C2     - H4    
     9      8     11      1    1.0956e+02    3.8828e+02 ;     H3 - C2     - C3    
    10      8     11      1    1.0956e+02    3.8828e+02 ;     H4 - C2     - C3    
    11     14     15      1    1.2077e+02    5.3137e+02 ;     C3 - C4     - C5    
    11     14     21      1    1.2077e+02    5.3137e+02 ;     C3 - C4     - C9    
    12     11     13      1    1.0758e+02    3.2970e+02 ;     H5 - C3     - H6    
    12     11     14      1    1.1047e+02    3.9162e+02 ;     H5 - C3     - C4    
    13     11     14      1    1.1047e+02    3.9162e+02 ;     H6 - C3     - C4    
    14     15     16      1    1.2002e+02    5.5731e+02 ;     C4 - C5     - C6    
    14     21     20      1    1.2002e+02    5.5731e+02 ;     C4 - C9     - C8    
    14     21     22      1    1.1988e+02    4.0334e+02 ;     C4 - C9     - H9    
    15     14     21      1    1.2002e+02    5.5731e+02 ;     C5 - C4     - C9    
    15     16     17      1    1.1988e+02    4.0334e+02 ;     C5 - C6     - H7    
    15     16     18      1    1.2002e+02    5.5731e+02 ;     C5 - C6     - C7    
    16     18     19      1    1.1988e+02    4.0334e+02 ;     C6 - C7     - H8    
    16     18     20      1    1.2002e+02    5.5731e+02 ;     C6 - C7     - C8    
    17     16     18      1    1.1988e+02    4.0334e+02 ;     H7 - C6     - C7    
    18     20     21      1    1.2002e+02    5.5731e+02 ;     C7 - C8     - C9    
    18     20     23      1    1.1942e+02    5.1463e+02 ;     C7 - C8     - S     
    19     18     20      1    1.1988e+02    4.0334e+02 ;     H8 - C7     - C8    
    20     21     22      1    1.1988e+02    4.0334e+02 ;     C8 - C9     - H9    
    20     23     24      1    1.0835e+02    5.5061e+02 ;     C8 - S      - O1    
    20     23     25      1    1.0835e+02    5.5061e+02 ;     C8 - S      - O2    
    20     23     26      1    1.0244e+02    5.3555e+02 ;     C8 - S      - N1    
    21     20     23      1    1.1942e+02    5.1463e+02 ;     C9 - C8     - S     
    23     26     27      1    1.1525e+02    5.2300e+02 ;      S - N1     - C10   
    23     26     42      1    1.1525e+02    5.2300e+02 ;      S - N1     - C14   
    24     23     25      1    1.2141e+02    6.0668e+02 ;     O1 - S      - O2    
    24     23     26      1    1.0713e+02    5.8911e+02 ;     O1 - S      - N1    
    25     23     26      1    1.0713e+02    5.8911e+02 ;     O2 - S      - N1    
    26     27     28      1    1.0988e+02    4.1422e+02 ;     N1 - C10    - H10   
    26     27     29      1    1.0988e+02    4.1422e+02 ;     N1 - C10    - H11   
    26     27     30      1    1.1104e+02    5.5229e+02 ;     N1 - C10    - C11   
    26     42     39      1    1.1104e+02    5.5229e+02 ;     N1 - C14    - C13   
    26     42     43      1    1.0988e+02    4.1422e+02 ;     N1 - C14    - H20   
    26     42     44      1    1.0988e+02    4.1422e+02 ;     N1 - C14    - H21   
    27     26     42      1    1.1235e+02    5.3388e+02 ;    C10 - N1     - C14   
    27     30     31      1    1.0980e+02    3.8744e+02 ;    C10 - C11    - H12   
    27     30     32      1    1.0980e+02    3.8744e+02 ;    C10 - C11    - H13   
    27     30     33      1    1.1151e+02    5.2635e+02 ;    C10 - C11    - C12   
    28     27     29      1    1.0846e+02    3.2803e+02 ;    H10 - C10    - H11   
    28     27     30      1    1.0956e+02    3.8828e+02 ;    H10 - C10    - C11   
    29     27     30      1    1.0956e+02    3.8828e+02 ;    H11 - C10    - C11   
    30     33     34      1    1.1056e+02    3.8660e+02 ;    C11 - C12    - H14   
    30     33     35      1    1.1056e+02    3.8660e+02 ;    C11 - C12    - H15   
    30     33     36      1    1.1421e+02    5.3723e+02 ;    C11 - C12    - N2    
    31     30     32      1    1.0758e+02    3.2970e+02 ;    H12 - C11    - H13   
    31     30     33      1    1.0980e+02    3.8744e+02 ;    H12 - C11    - C12   
    32     30     33      1    1.0980e+02    3.8744e+02 ;    H13 - C11    - C12   
    33     36     37      1    1.1011e+02    3.8409e+02 ;    C12 - N2     - H16   
    33     36     38      1    1.1011e+02    3.8409e+02 ;    C12 - N2     - H17   
    33     36     39      1    1.0966e+02    5.2384e+02 ;    C12 - N2     - C13   
    34     33     35      1    1.0975e+02    3.2803e+02 ;    H14 - C12    - H15   
    34     33     36      1    1.0801e+02    4.0668e+02 ;    H14 - C12    - N2    
    35     33     36      1    1.0801e+02    4.0668e+02 ;    H15 - C12    - N2    
    36     39     40      1    1.0801e+02    4.0668e+02 ;     N2 - C13    - H18   
    36     39     41      1    1.0801e+02    4.0668e+02 ;     N2 - C13    - H19   
    36     39     42      1    1.1421e+02    5.3723e+02 ;     N2 - C13    - C14   
    37     36     38      1    1.0830e+02    3.3974e+02 ;    H16 - N2     - H17   
    37     36     39      1    1.1011e+02    3.8409e+02 ;    H16 - N2     - C13   
    38     36     39      1    1.1011e+02    3.8409e+02 ;    H17 - N2     - C13   
    39     42     43      1    1.0956e+02    3.8828e+02 ;    C13 - C14    - H20   
    39     42     44      1    1.0956e+02    3.8828e+02 ;    C13 - C14    - H21   
    40     39     41      1    1.0975e+02    3.2803e+02 ;    H18 - C13    - H19   
    40     39     42      1    1.1056e+02    3.8660e+02 ;    H18 - C13    - C14   
    41     39     42      1    1.1056e+02    3.8660e+02 ;    H19 - C13    - C14   
    43     42     44      1    1.0846e+02    3.2803e+02 ;    H20 - C14    - H21   


[ dihedrals ]
     1      7      5      6      4   180.00  43.93200   2 ;      C-     N-    C1-     O
     5      8      7     15      4   180.00   4.60240   2 ;     C1-    C2-     N-    C5
    14     16     15      7      4   180.00   4.60240   2 ;     C4-    C6-    C5-     N
    14     20     21     22      4   180.00   4.60240   2 ;     C4-    C8-    C9-    H9
    15     18     16     17      4   180.00   4.60240   2 ;     C5-    C7-    C6-    H7
    15     21     14     11      4   180.00   4.60240   2 ;     C5-    C9-    C4-    C3
    16     20     18     19      4   180.00   4.60240   2 ;     C6-    C8-    C7-    H8
    18     21     20     23      4   180.00   4.60240   2 ;     C7-    C9-    C8-     S



[ moleculetype ]
; molname	nrexcl
SOL		1

[ atoms ]
1       OW_tip4pd    	1	SOL	 OW		1	0        16.00000
2	HW       	1	SOL	HW2		1	0.5900 	  1.00800
3	HW	        1	SOL	HW3		1	0.5900 	  1.00800
4	MW		1	SOL	MW4		1      -1.1800    0.00000


[ settles ]
1	1	0.09572	0.15139


[ virtual_sites3 ]
4	1	2	3	1	0.131937768	0.131937768


[ exclusions ]
1	2	3	4
2	1	3	4
3	1	2	4
4	1	2	3




[ moleculetype ]
; molname       nrexcl
IB+             1       ; big positive ion

[ atoms ]
   1    IB                  1       IB+            IB      1    1.00000



[ moleculetype ]
; molname       nrexcl
CA              1

[ atoms ]
   1    C0                  1       CA             CA      1    2.00000



[ moleculetype ]
; molname       nrexcl
CL              1

[ atoms ]
   1    Cl                  1       CL             CL      1   -1.00000



[ moleculetype ]
; molname       nrexcl
NA              1

[ atoms ]
   1    Na                  1       NA             NA      1    1.00000



[ moleculetype ]
; molname       nrexcl
MG              1

[ atoms ]
   1    MG                  1       MG             MG      1    2.00000



[ moleculetype ]
; molname       nrexcl
K               1

[ atoms ]
   1    K                   1       K              K       1    1.00000



[ moleculetype ]
; molname       nrexcl
RB              1

[ atoms ]
   1    Rb                  1       RB             RB      1    1.00000



[ moleculetype ]
; molname       nrexcl
CS              1

[ atoms ]
   1    Cs                  1       CS             CS      1    1.00000



[ moleculetype ]
; molname       nrexcl
LI              1

[ atoms ]
   1    Li                  1       LI             LI      1    1.00000



[ moleculetype ]
; molname       nrexcl
ZN              1

[ atoms ]
   1    Zn                  1       ZN             ZN      1    2.00000


 [ system ] 
; Name
A-SYNC WITH LIG-47 in water

 [ molecules ] 
; Compound        #mols
Protein_chain_A     1
L47		    1
SOL         8739
NA               7

