 [ defaults ] 
; nbfunc        comb-rule       gen-pairs       fudgeLJ fudgeQQ
1               2               yes             0.5     0.8333

[ atomtypes ]
Br           35      79.90   0.0000  A  0.00000e+00  0.00000e+00
sBr          35      79.90   0.0000  A  0.00000e+00  0.00000e+00
C            6       12.01   0.0000  A  3.39967e-01  3.59824e-01
sC           6       12.01   0.0000  A  3.39967e-01  2.15894e-01
C6           6       12.01   0.0000  A  3.39967e-01  3.59824e-01
sC6          6       12.01   0.0000  A  3.39967e-01  2.15894e-01
C5           6       12.01   0.0000  A  3.39967e-01  3.59824e-01
sC5          6       12.01   0.0000  A  3.39967e-01  2.15894e-01
CA           6       12.01   0.0000  A  3.39967e-01  3.59824e-01
sCA          6       12.01   0.0000  A  3.39967e-01  2.15894e-01
CB           6       12.01   0.0000  A  3.39967e-01  3.59824e-01
sCB          6       12.01   0.0000  A  3.39967e-01  2.15894e-01
CC           6       12.01   0.0000  A  3.39967e-01  3.59824e-01
sCC          6       12.01   0.0000  A  3.39967e-01  2.15894e-01
CK           6       12.01   0.0000  A  3.39967e-01  3.59824e-01
sCK          6       12.01   0.0000  A  3.39967e-01  2.15894e-01
CM           6       12.01   0.0000  A  3.39967e-01  3.59824e-01
sCM          6       12.01   0.0000  A  3.39967e-01  2.15894e-01
CN           6       12.01   0.0000  A  3.39967e-01  3.59824e-01
sCN          6       12.01   0.0000  A  3.39967e-01  2.15894e-01
CQ           6       12.01   0.0000  A  3.39967e-01  3.59824e-01
sCQ          6       12.01   0.0000  A  3.39967e-01  2.15894e-01
CR           6       12.01   0.0000  A  3.39967e-01  3.59824e-01
sCR          6       12.01   0.0000  A  3.39967e-01  2.15894e-01
CT           6       12.01   0.0000  A  3.39967e-01  4.57730e-01
sCT          6       12.01   0.0000  A  3.39967e-01  2.74638e-01
C1           6       12.01   0.0000  A  3.39967e-01  4.57730e-01
sC1          6       12.01   0.0000  A  3.39967e-01  2.74638e-01
C3           6       12.01   0.0000  A  3.39967e-01  4.57730e-01
sC3          6       12.01   0.0000  A  3.39967e-01  2.74638e-01
C4           6       12.01   0.0000  A  3.39967e-01  4.57730e-01
sC4          6       12.01   0.0000  A  3.39967e-01  2.74638e-01
C7           6       12.01   0.0000  A  3.39967e-01  4.57730e-01
sC7          6       12.01   0.0000  A  3.39967e-01  2.74638e-01
C8           6       12.01   0.0000  A  3.39967e-01  4.57730e-01
sC8          6       12.01   0.0000  A  3.39967e-01  2.74638e-01
C9           6       12.01   0.0000  A  3.39967e-01  4.57730e-01
sC9          6       12.01   0.0000  A  3.39967e-01  2.74638e-01
CV           6       12.01   0.0000  A  3.39967e-01  3.59824e-01
sCV          6       12.01   0.0000  A  3.39967e-01  2.15894e-01
CW           6       12.01   0.0000  A  3.39967e-01  3.59824e-01
sCW          6       12.01   0.0000  A  3.39967e-01  2.15894e-01
C*           6       12.01   0.0000  A  3.39967e-01  3.59824e-01
sC*          6       12.01   0.0000  A  3.39967e-01  2.15894e-01
C0           20      40.08   0.0000  A  3.05240e-01  1.92376e+00
sC0          20      40.08   0.0000  A  3.05240e-01  1.15426e+00
F            9       19.00   0.0000  A  3.11815e-01  2.55224e-01
sF           9       19.00   0.0000  A  3.11815e-01  1.53134e-01
H            1       1.008   0.0000  A  1.06908e-01  6.56888e-02
sH           1       1.008   0.0000  A  1.06908e-01  3.94133e-02
HB           1       1.008   0.0000  A  1.06908e-01  6.56888e-02
sHB          1       1.008   0.0000  A  1.06908e-01  3.94133e-02
HC           1       1.008   0.0000  A  2.64953e-01  6.56888e-02
sHC          1       1.008   0.0000  A  2.64953e-01  3.94133e-02
H1           1       1.008   0.0000  A  2.47135e-01  6.56888e-02
sH1          1       1.008   0.0000  A  2.47135e-01  3.94133e-02
H2           1       1.008   0.0000  A  2.29317e-01  6.56888e-02
sH2          1       1.008   0.0000  A  2.29317e-01  3.94133e-02
H3           1       1.008   0.0000  A  2.11499e-01  6.56888e-02
sH3          1       1.008   0.0000  A  2.11499e-01  3.94133e-02
HA           1       1.008   0.0000  A  2.59964e-01  6.27600e-02
sHA          1       1.008   0.0000  A  2.59964e-01  3.76560e-02
H4           1       1.008   0.0000  A  2.51055e-01  6.27600e-02
sH4          1       1.008   0.0000  A  2.51055e-01  3.76560e-02
H5           1       1.008   0.0000  A  2.42146e-01  6.27600e-02
sH5          1       1.008   0.0000  A  2.42146e-01  3.76560e-02
HO           1       1.008   0.0000  A  0.00000e+00  0.00000e+00
sHO          1       1.008   0.0000  A  0.00000e+00  0.00000e+00
HS           1       1.008   0.0000  A  1.06908e-01  6.56888e-02
sHS          1       1.008   0.0000  A  1.06908e-01  3.94133e-02
HW           1       1.008   0.0000  A  0.00000e+00  0.00000e+00
sHW          1       1.008   0.0000  A  0.00000e+00  0.00000e+00
HP           1       1.008   0.0000  A  1.95998e-01  6.56888e-02
sHP          1       1.008   0.0000  A  1.95998e-01  3.94133e-02
I            53      126.9   0.0000  A  4.18722e-01  1.67360e+00
sI           53      126.9   0.0000  A  4.18722e-01  1.00416e+00
Cl           17      35.45   0.0000  A  4.40104e-01  4.18400e-01
sCl          17      35.45   0.0000  A  4.40104e-01  2.51040e-01
Na           11      22.99   0.0000  A  3.32840e-01  1.15897e-02
sNa          11      22.99   0.0000  A  3.32840e-01  6.95382e-03
IB           0       131.0   0.0000  A  8.90899e-01  4.18400e-01
sIB          0       131.0   0.0000  A  8.90899e-01  2.51040e-01
MG           12     24.305   0.0000  A  1.41225e-01  3.74342e+00
sMG          12     24.305   0.0000  A  1.41225e-01  2.24605e+00
N            7       14.01   0.0000  A  3.25000e-01  7.11280e-01
sN           7       14.01   0.0000  A  3.25000e-01  4.26768e-01
NA           7       14.01   0.0000  A  3.25000e-01  7.11280e-01
sNA          7       14.01   0.0000  A  3.25000e-01  4.26768e-01
NB           7       14.01   0.0000  A  3.25000e-01  7.11280e-01
sNB          7       14.01   0.0000  A  3.25000e-01  4.26768e-01
NC           7       14.01   0.0000  A  3.25000e-01  7.11280e-01
sNC          7       14.01   0.0000  A  3.25000e-01  4.26768e-01
N2           7       14.01   0.0000  A  3.25000e-01  7.11280e-01
sN2          7       14.01   0.0000  A  3.25000e-01  4.26768e-01
N3           7       14.01   0.0000  A  3.25000e-01  7.11280e-01
sN3          7       14.01   0.0000  A  3.25000e-01  4.26768e-01
N*           7       14.01   0.0000  A  3.25000e-01  7.11280e-01
sN*          7       14.01   0.0000  A  3.25000e-01  4.26768e-01
O            8       16.00   0.0000  A  2.95992e-01  8.78640e-01
sO           8       16.00   0.0000  A  2.95992e-01  5.27184e-01
OB           8       16.00   0.0000  A  2.95992e-01  8.78640e-01
sOB          8       16.00   0.0000  A  2.95992e-01  5.27184e-01
OW           8       16.00   0.0000  A  3.15061e-01  6.36386e-01
sOW          8       16.00   0.0000  A  3.15061e-01  3.81832e-01
OH           8       16.00   0.0000  A  3.06647e-01  8.80314e-01
sOH          8       16.00   0.0000  A  3.06647e-01  5.28188e-01
O3           8       16.00   0.0000  A  3.06647e-01  8.80314e-01
sO3          8       16.00   0.0000  A  3.06647e-01  5.28188e-01
OS           8       16.00   0.0000  A  3.00001e-01  7.11280e-01
sOS          8       16.00   0.0000  A  3.00001e-01  4.26768e-01
O2           8       16.00   0.0000  A  2.95992e-01  8.78640e-01
sO2          8       16.00   0.0000  A  2.95992e-01  5.27184e-01
P            15      30.97   0.0000  A  3.74177e-01  8.36800e-01
sP           15      30.97   0.0000  A  3.74177e-01  5.02080e-01
S            16      32.06   0.0000  A  3.56359e-01  1.04600e+00
sS           16      32.06   0.0000  A  3.56359e-01  6.27600e-01
SH           16      32.06   0.0000  A  3.56359e-01  1.04600e+00
sSH          16      32.06   0.0000  A  3.56359e-01  6.27600e-01
CU           29      63.55   0.0000  A  3.39967e-01  3.59824e-01
sCU          29      63.55   0.0000  A  3.39967e-01  2.15894e-01
FE           26      55.00   0.0000  A  0.00000e+00  0.00000e+00
sFE          26      55.00   0.0000  A  0.00000e+00  0.00000e+00
K            19      39.10   0.0000  A  4.73602e-01  1.37235e-03
sK           19      39.10   0.0000  A  4.73602e-01  8.23410e-04
Rb           37      85.47   0.0000  A  5.26699e-01  7.11280e-04
sRb          37      85.47   0.0000  A  5.26699e-01  4.26768e-04
Cs           55     132.91   0.0000  A  6.04920e-01  3.37230e-04
sCs          55     132.91   0.0000  A  6.04920e-01  2.02338e-04
OW_spc       8      15.9994   0.0000  A  3.16557e-01  6.50629e-01
sOW_spc      8      15.9994   0.0000  A  3.16557e-01  3.90377e-01
HW_spc       1      1.0080   0.0000  A  0.00000e+00  0.00000e+00
sHW_spc      1      1.0080   0.0000  A  0.00000e+00  0.00000e+00
Li           3        6.94   0.0000  A  2.02590e-01  7.65672e-02
sLi          3        6.94   0.0000  A  2.02590e-01  4.59403e-02
Zn           30       65.4   0.0000  A  1.95998e-01  5.23000e-02
sZn          30       65.4   0.0000  A  1.95998e-01  3.13800e-02
HW_tip4pew   1       1.008   0.0000  A  0.00000e+00  0.00000e+00
sHW_tip4pew  1       1.008   0.0000  A  0.00000e+00  0.00000e+00
OW_tip4pew   8       16.00   0.0000  A  3.16435e-01  6.80946e-01
sOW_tip4pew  8       16.00   0.0000  A  3.16435e-01  4.08568e-01
HW_tip4p     1       1.008   0.0000  A  0.00000e+00  0.00000e+00
sHW_tip4p    1       1.008   0.0000  A  0.00000e+00  0.00000e+00
OW_tip4p     8       16.00   0.0000  A  3.15365e-01  6.48520e-01
sOW_tip4p    8       16.00   0.0000  A  3.15365e-01  3.89112e-01
HW_tip5p     1       1.008   0.0000  A  0.00000e+00  0.00000e+00
sHW_tip5p    1       1.008   0.0000  A  0.00000e+00  0.00000e+00
OW_tip5p     8       16.00   0.0000  A  3.12000e-01  6.69440e-01
sOW_tip5p    8       16.00   0.0000  A  3.12000e-01  4.01664e-01
HW_tip4pd    1       1.008   0.0000  A  0.00000e+00  0.00000e+00
sHW_tip4pd   1       1.008   0.0000  A  0.00000e+00  0.00000e+00
OW_tip4pd    8       16.00   0.0000  A  3.16500e-01  9.98989e-01
sOW_tip4pd   8       16.00   0.0000  A  3.16500e-01  5.99393e-01
MW           0      0.0000   0.0000  A  0.00000e+00  0.00000e+00
sMW          0      0.0000   0.0000  A  0.00000e+00  0.00000e+00
MCH3         0      0.0000   0.0000  A  0.00000e+00  0.00000e+00
sMCH3        0      0.0000   0.0000  A  0.00000e+00  0.00000e+00
MNH3         0      0.0000   0.0000  A  0.00000e+00  0.00000e+00
sMNH3        0      0.0000   0.0000  A  0.00000e+00  0.00000e+00
c3           c3     0.00000  0.00000  A  3.39967e-01  4.57730e-01
sc3          c3     0.00000  0.00000  A  3.39967e-01  6.56400e-02
hc           hc     0.00000  0.00000  A  2.64953e-01  6.56888e-02
shc          hc     0.00000  0.00000  A  2.64953e-01  9.42000e-03
c            c      0.00000  0.00000  A  3.39967e-01  3.59824e-01
sc           c      0.00000  0.00000  A  3.39967e-01  5.16000e-02
o            o      0.00000  0.00000  A  2.95992e-01  8.78640e-01
so           o      0.00000  0.00000  A  2.95992e-01  1.26000e-01
n            n      0.00000  0.00000  A  3.25000e-01  7.11280e-01
sn           n      0.00000  0.00000  A  3.25000e-01  1.02000e-01
h1           h1     0.00000  0.00000  A  2.47135e-01  6.56888e-02
sh1          h1     0.00000  0.00000  A  2.47135e-01  9.42000e-03
ca           ca     0.00000  0.00000  A  3.39967e-01  3.59824e-01
sca          ca     0.00000  0.00000  A  3.39967e-01  5.16000e-02
ha           ha     0.00000  0.00000  A  2.59964e-01  6.27600e-02
sha          ha     0.00000  0.00000  A  2.59964e-01  9.00000e-03
sy           sy     0.00000  0.00000  A  3.56359e-01  1.04600e+00
ssy          sy     0.00000  0.00000  A  3.56359e-01  1.50000e-01
n3           n3     0.00000  0.00000  A  3.25000e-01  7.11280e-01
sn3          n3     0.00000  0.00000  A  3.25000e-01  1.02000e-01
hx           hx     0.00000  0.00000  A  1.95998e-01  6.56888e-02
shx          hx     0.00000  0.00000  A  1.95998e-01  9.42000e-03
n4           n4     0.00000  0.00000  A  3.25000e-01  7.11280e-01
sn4          n4     0.00000  0.00000  A  3.25000e-01  1.02000e-01
hn           hn     0.00000  0.00000  A  1.06908e-01  6.56888e-02
shn          hn     0.00000  0.00000  A  1.06908e-01  9.42000e-03

[ nonbond_params ]
  OB   HB     1      0.150   1.2552
  sOB  sHB     1      0.150   0.7531
    1    0   1       0.0000   0.0000
    1    2   1       0.1700   0.0000
    1    4   1       0.1700   0.0000
    1    6   1       0.1700   0.0000
    1    8   1       0.1700   0.0000
    1   10   1       0.1700   0.0000
    1   12   1       0.1700   0.0000
    1   14   1       0.1700   0.0000
    1   16   1       0.1700   0.0000
    1   18   1       0.1700   0.0000
    1   20   1       0.1700   0.0000
    1   22   1       0.1700   0.0000
    1   24   1       0.1700   0.0000
    1   26   1       0.1700   0.0000
    1   28   1       0.1700   0.0000
    1   30   1       0.1700   0.0000
    1   32   1       0.1700   0.0000
    1   34   1       0.1700   0.0000
    1   36   1       0.1700   0.0000
    1   38   1       0.1700   0.0000
    1   40   1       0.1700   0.0000
    1   42   1       0.1700   0.0000
    1   44   1       0.1526   0.0000
    1   46   1       0.1559   0.0000
    1   48   1       0.0535   0.0000
    1   50   1       0.0535   0.0000
    1   52   1       0.1325   0.0000
    1   54   1       0.1236   0.0000
    1   56   1       0.1147   0.0000
    1   58   1       0.1057   0.0000
    1   60   1       0.1300   0.0000
    1   62   1       0.1255   0.0000
    1   64   1       0.1211   0.0000
    1   66   1       0.0000   0.0000
    1   68   1       0.0535   0.0000
    1   70   1       0.0000   0.0000
    1   72   1       0.0980   0.0000
    1   74   1       0.2094   0.0000
    1   76   1       0.2201   0.0000
    1   78   1       0.1664   0.0000
    1   80   1       0.4454   0.0000
    1   82   1       0.0706   0.0000
    1   84   1       0.1625   0.0000
    1   86   1       0.1625   0.0000
    1   88   1       0.1625   0.0000
    1   90   1       0.1625   0.0000
    1   92   1       0.1625   0.0000
    1   94   1       0.1625   0.0000
    1   96   1       0.1625   0.0000
    1   98   1       0.1480   0.0000
    1  100   1       0.1480   0.0000
    1  102   1       0.1575   0.0000
    1  104   1       0.1533   0.0000
    1  106   1       0.1533   0.0000
    1  108   1       0.1500   0.0000
    1  110   1       0.1480   0.0000
    1  112   1       0.1871   0.0000
    1  114   1       0.1782   0.0000
    1  116   1       0.1782   0.0000
    1  118   1       0.1700   0.0000
    1  120   1       0.0000   0.0000
    1  122   1       0.2368   0.0000
    1  124   1       0.2633   0.0000
    1  132   1       0.1013   0.0000
    1  134   1       0.0980   0.0000
    1  136   1       0.0000   0.0000
    1  138   1       0.1582   0.0000
    1  140   1       0.0000   0.0000
    1  142   1       0.1577   0.0000
    1  144   1       0.0000   0.0000
    1  146   1       0.1560   0.0000
    1  148   1       0.0000   0.0000
    1  150   1       0.1583   0.0000
    1  152   1       0.0000   0.0000
    1  154   1       0.0000   0.0000
    1  156   1       0.0000   0.0000
    1  158   1       0.1700   0.0000
    1  160   1       0.1325   0.0000
    1  162   1       0.1700   0.0000
    1  164   1       0.1480   0.0000
    1  166   1       0.1625   0.0000
    1  168   1       0.1236   0.0000
    1  170   1       0.1700   0.0000
    1  172   1       0.1300   0.0000
    1  176   1       0.1625   0.0000
    1  178   1       0.0980   0.0000
    1  180   1       0.1625   0.0000
    1  182   1       0.0535   0.0000
    3    0   1       0.1700   0.0000
    3    2   1       0.3400   0.2288
    3    4   1       0.3400   0.2288
    3    6   1       0.3400   0.2288
    3    8   1       0.3400   0.2288
    3   10   1       0.3400   0.2288
    3   12   1       0.3400   0.2288
    3   14   1       0.3400   0.2288
    3   16   1       0.3400   0.2288
    3   18   1       0.3400   0.2288
    3   20   1       0.3400   0.2288
    3   22   1       0.3400   0.2288
    3   24   1       0.3400   0.2581
    3   26   1       0.3400   0.2581
    3   28   1       0.3400   0.2581
    3   30   1       0.3400   0.2581
    3   32   1       0.3400   0.2581
    3   34   1       0.3400   0.2581
    3   36   1       0.3400   0.2581
    3   38   1       0.3400   0.2288
    3   40   1       0.3400   0.2288
    3   42   1       0.3400   0.2288
    3   44   1       0.3226   0.5291
    3   46   1       0.3259   0.1927
    3   48   1       0.2234   0.0978
    3   50   1       0.2234   0.0978
    3   52   1       0.3025   0.0978
    3   54   1       0.2936   0.0978
    3   56   1       0.2846   0.0978
    3   58   1       0.2757   0.0978
    3   60   1       0.3000   0.0956
    3   62   1       0.2955   0.0956
    3   64   1       0.2911   0.0956
    3   66   1       0.1700   0.0000
    3   68   1       0.2234   0.0978
    3   70   1       0.1700   0.0000
    3   72   1       0.2680   0.0978
    3   74   1       0.3793   0.4935
    3   76   1       0.3900   0.2468
    3   78   1       0.3364   0.0411
    3   80   1       0.6154   0.2468
    3   82   1       0.2406   0.7381
    3   84   1       0.3325   0.3218
    3   86   1       0.3325   0.3218
    3   88   1       0.3325   0.3218
    3   90   1       0.3325   0.3218
    3   92   1       0.3325   0.3218
    3   94   1       0.3325   0.3218
    3   96   1       0.3325   0.3218
    3   98   1       0.3180   0.3576
    3  100   1       0.3180   0.3576
    3  102   1       0.3275   0.3043
    3  104   1       0.3233   0.3579
    3  106   1       0.3233   0.3579
    3  108   1       0.3200   0.3218
    3  110   1       0.3180   0.3576
    3  112   1       0.3571   0.3490
    3  114   1       0.3482   0.3902
    3  116   1       0.3482   0.3902
    3  118   1       0.3400   0.2288
    3  120   1       0.1700   0.0000
    3  122   1       0.4068   0.0141
    3  124   1       0.4333   0.0102
    3  132   1       0.2713   0.1056
    3  134   1       0.2680   0.0872
    3  136   1       0.1700   0.0000
    3  138   1       0.3282   0.3148
    3  140   1       0.1700   0.0000
    3  142   1       0.3277   0.3072
    3  144   1       0.1700   0.0000
    3  146   1       0.3260   0.3121
    3  148   1       0.1700   0.0000
    3  150   1       0.3282   0.3813
    3  152   1       0.1700   0.0000
    3  154   1       0.1700   0.0000
    3  156   1       0.1700   0.0000
    3  158   1       0.3400   0.2581
    3  160   1       0.3025   0.0978
    3  162   1       0.3400   0.2288
    3  164   1       0.3180   0.3576
    3  166   1       0.3325   0.3218
    3  168   1       0.2936   0.0978
    3  170   1       0.3400   0.2288
    3  172   1       0.3000   0.0956
    3  176   1       0.3325   0.3218
    3  178   1       0.2680   0.0978
    3  180   1       0.3325   0.3218
    3  182   1       0.2234   0.0978
    5    0   1       0.1700   0.0000
    5    2   1       0.3400   0.2288
    5    4   1       0.3400   0.2288
    5    6   1       0.3400   0.2288
    5    8   1       0.3400   0.2288
    5   10   1       0.3400   0.2288
    5   12   1       0.3400   0.2288
    5   14   1       0.3400   0.2288
    5   16   1       0.3400   0.2288
    5   18   1       0.3400   0.2288
    5   20   1       0.3400   0.2288
    5   22   1       0.3400   0.2288
    5   24   1       0.3400   0.2581
    5   26   1       0.3400   0.2581
    5   28   1       0.3400   0.2581
    5   30   1       0.3400   0.2581
    5   32   1       0.3400   0.2581
    5   34   1       0.3400   0.2581
    5   36   1       0.3400   0.2581
    5   38   1       0.3400   0.2288
    5   40   1       0.3400   0.2288
    5   42   1       0.3400   0.2288
    5   44   1       0.3226   0.5291
    5   46   1       0.3259   0.1927
    5   48   1       0.2234   0.0978
    5   50   1       0.2234   0.0978
    5   52   1       0.3025   0.0978
    5   54   1       0.2936   0.0978
    5   56   1       0.2846   0.0978
    5   58   1       0.2757   0.0978
    5   60   1       0.3000   0.0956
    5   62   1       0.2955   0.0956
    5   64   1       0.2911   0.0956
    5   66   1       0.1700   0.0000
    5   68   1       0.2234   0.0978
    5   70   1       0.1700   0.0000
    5   72   1       0.2680   0.0978
    5   74   1       0.3793   0.4935
    5   76   1       0.3900   0.2468
    5   78   1       0.3364   0.0411
    5   80   1       0.6154   0.2468
    5   82   1       0.2406   0.7381
    5   84   1       0.3325   0.3218
    5   86   1       0.3325   0.3218
    5   88   1       0.3325   0.3218
    5   90   1       0.3325   0.3218
    5   92   1       0.3325   0.3218
    5   94   1       0.3325   0.3218
    5   96   1       0.3325   0.3218
    5   98   1       0.3180   0.3576
    5  100   1       0.3180   0.3576
    5  102   1       0.3275   0.3043
    5  104   1       0.3233   0.3579
    5  106   1       0.3233   0.3579
    5  108   1       0.3200   0.3218
    5  110   1       0.3180   0.3576
    5  112   1       0.3571   0.3490
    5  114   1       0.3482   0.3902
    5  116   1       0.3482   0.3902
    5  118   1       0.3400   0.2288
    5  120   1       0.1700   0.0000
    5  122   1       0.4068   0.0141
    5  124   1       0.4333   0.0102
    5  132   1       0.2713   0.1056
    5  134   1       0.2680   0.0872
    5  136   1       0.1700   0.0000
    5  138   1       0.3282   0.3148
    5  140   1       0.1700   0.0000
    5  142   1       0.3277   0.3072
    5  144   1       0.1700   0.0000
    5  146   1       0.3260   0.3121
    5  148   1       0.1700   0.0000
    5  150   1       0.3282   0.3813
    5  152   1       0.1700   0.0000
    5  154   1       0.1700   0.0000
    5  156   1       0.1700   0.0000
    5  158   1       0.3400   0.2581
    5  160   1       0.3025   0.0978
    5  162   1       0.3400   0.2288
    5  164   1       0.3180   0.3576
    5  166   1       0.3325   0.3218
    5  168   1       0.2936   0.0978
    5  170   1       0.3400   0.2288
    5  172   1       0.3000   0.0956
    5  176   1       0.3325   0.3218
    5  178   1       0.2680   0.0978
    5  180   1       0.3325   0.3218
    5  182   1       0.2234   0.0978
    7    0   1       0.1700   0.0000
    7    2   1       0.3400   0.2288
    7    4   1       0.3400   0.2288
    7    6   1       0.3400   0.2288
    7    8   1       0.3400   0.2288
    7   10   1       0.3400   0.2288
    7   12   1       0.3400   0.2288
    7   14   1       0.3400   0.2288
    7   16   1       0.3400   0.2288
    7   18   1       0.3400   0.2288
    7   20   1       0.3400   0.2288
    7   22   1       0.3400   0.2288
    7   24   1       0.3400   0.2581
    7   26   1       0.3400   0.2581
    7   28   1       0.3400   0.2581
    7   30   1       0.3400   0.2581
    7   32   1       0.3400   0.2581
    7   34   1       0.3400   0.2581
    7   36   1       0.3400   0.2581
    7   38   1       0.3400   0.2288
    7   40   1       0.3400   0.2288
    7   42   1       0.3400   0.2288
    7   44   1       0.3226   0.5291
    7   46   1       0.3259   0.1927
    7   48   1       0.2234   0.0978
    7   50   1       0.2234   0.0978
    7   52   1       0.3025   0.0978
    7   54   1       0.2936   0.0978
    7   56   1       0.2846   0.0978
    7   58   1       0.2757   0.0978
    7   60   1       0.3000   0.0956
    7   62   1       0.2955   0.0956
    7   64   1       0.2911   0.0956
    7   66   1       0.1700   0.0000
    7   68   1       0.2234   0.0978
    7   70   1       0.1700   0.0000
    7   72   1       0.2680   0.0978
    7   74   1       0.3793   0.4935
    7   76   1       0.3900   0.2468
    7   78   1       0.3364   0.0411
    7   80   1       0.6154   0.2468
    7   82   1       0.2406   0.7381
    7   84   1       0.3325   0.3218
    7   86   1       0.3325   0.3218
    7   88   1       0.3325   0.3218
    7   90   1       0.3325   0.3218
    7   92   1       0.3325   0.3218
    7   94   1       0.3325   0.3218
    7   96   1       0.3325   0.3218
    7   98   1       0.3180   0.3576
    7  100   1       0.3180   0.3576
    7  102   1       0.3275   0.3043
    7  104   1       0.3233   0.3579
    7  106   1       0.3233   0.3579
    7  108   1       0.3200   0.3218
    7  110   1       0.3180   0.3576
    7  112   1       0.3571   0.3490
    7  114   1       0.3482   0.3902
    7  116   1       0.3482   0.3902
    7  118   1       0.3400   0.2288
    7  120   1       0.1700   0.0000
    7  122   1       0.4068   0.0141
    7  124   1       0.4333   0.0102
    7  132   1       0.2713   0.1056
    7  134   1       0.2680   0.0872
    7  136   1       0.1700   0.0000
    7  138   1       0.3282   0.3148
    7  140   1       0.1700   0.0000
    7  142   1       0.3277   0.3072
    7  144   1       0.1700   0.0000
    7  146   1       0.3260   0.3121
    7  148   1       0.1700   0.0000
    7  150   1       0.3282   0.3813
    7  152   1       0.1700   0.0000
    7  154   1       0.1700   0.0000
    7  156   1       0.1700   0.0000
    7  158   1       0.3400   0.2581
    7  160   1       0.3025   0.0978
    7  162   1       0.3400   0.2288
    7  164   1       0.3180   0.3576
    7  166   1       0.3325   0.3218
    7  168   1       0.2936   0.0978
    7  170   1       0.3400   0.2288
    7  172   1       0.3000   0.0956
    7  176   1       0.3325   0.3218
    7  178   1       0.2680   0.0978
    7  180   1       0.3325   0.3218
    7  182   1       0.2234   0.0978
    9    0   1       0.1700   0.0000
    9    2   1       0.3400   0.2288
    9    4   1       0.3400   0.2288
    9    6   1       0.3400   0.2288
    9    8   1       0.3400   0.2288
    9   10   1       0.3400   0.2288
    9   12   1       0.3400   0.2288
    9   14   1       0.3400   0.2288
    9   16   1       0.3400   0.2288
    9   18   1       0.3400   0.2288
    9   20   1       0.3400   0.2288
    9   22   1       0.3400   0.2288
    9   24   1       0.3400   0.2581
    9   26   1       0.3400   0.2581
    9   28   1       0.3400   0.2581
    9   30   1       0.3400   0.2581
    9   32   1       0.3400   0.2581
    9   34   1       0.3400   0.2581
    9   36   1       0.3400   0.2581
    9   38   1       0.3400   0.2288
    9   40   1       0.3400   0.2288
    9   42   1       0.3400   0.2288
    9   44   1       0.3226   0.5291
    9   46   1       0.3259   0.1927
    9   48   1       0.2234   0.0978
    9   50   1       0.2234   0.0978
    9   52   1       0.3025   0.0978
    9   54   1       0.2936   0.0978
    9   56   1       0.2846   0.0978
    9   58   1       0.2757   0.0978
    9   60   1       0.3000   0.0956
    9   62   1       0.2955   0.0956
    9   64   1       0.2911   0.0956
    9   66   1       0.1700   0.0000
    9   68   1       0.2234   0.0978
    9   70   1       0.1700   0.0000
    9   72   1       0.2680   0.0978
    9   74   1       0.3793   0.4935
    9   76   1       0.3900   0.2468
    9   78   1       0.3364   0.0411
    9   80   1       0.6154   0.2468
    9   82   1       0.2406   0.7381
    9   84   1       0.3325   0.3218
    9   86   1       0.3325   0.3218
    9   88   1       0.3325   0.3218
    9   90   1       0.3325   0.3218
    9   92   1       0.3325   0.3218
    9   94   1       0.3325   0.3218
    9   96   1       0.3325   0.3218
    9   98   1       0.3180   0.3576
    9  100   1       0.3180   0.3576
    9  102   1       0.3275   0.3043
    9  104   1       0.3233   0.3579
    9  106   1       0.3233   0.3579
    9  108   1       0.3200   0.3218
    9  110   1       0.3180   0.3576
    9  112   1       0.3571   0.3490
    9  114   1       0.3482   0.3902
    9  116   1       0.3482   0.3902
    9  118   1       0.3400   0.2288
    9  120   1       0.1700   0.0000
    9  122   1       0.4068   0.0141
    9  124   1       0.4333   0.0102
    9  132   1       0.2713   0.1056
    9  134   1       0.2680   0.0872
    9  136   1       0.1700   0.0000
    9  138   1       0.3282   0.3148
    9  140   1       0.1700   0.0000
    9  142   1       0.3277   0.3072
    9  144   1       0.1700   0.0000
    9  146   1       0.3260   0.3121
    9  148   1       0.1700   0.0000
    9  150   1       0.3282   0.3813
    9  152   1       0.1700   0.0000
    9  154   1       0.1700   0.0000
    9  156   1       0.1700   0.0000
    9  158   1       0.3400   0.2581
    9  160   1       0.3025   0.0978
    9  162   1       0.3400   0.2288
    9  164   1       0.3180   0.3576
    9  166   1       0.3325   0.3218
    9  168   1       0.2936   0.0978
    9  170   1       0.3400   0.2288
    9  172   1       0.3000   0.0956
    9  176   1       0.3325   0.3218
    9  178   1       0.2680   0.0978
    9  180   1       0.3325   0.3218
    9  182   1       0.2234   0.0978
   11    0   1       0.1700   0.0000
   11    2   1       0.3400   0.2288
   11    4   1       0.3400   0.2288
   11    6   1       0.3400   0.2288
   11    8   1       0.3400   0.2288
   11   10   1       0.3400   0.2288
   11   12   1       0.3400   0.2288
   11   14   1       0.3400   0.2288
   11   16   1       0.3400   0.2288
   11   18   1       0.3400   0.2288
   11   20   1       0.3400   0.2288
   11   22   1       0.3400   0.2288
   11   24   1       0.3400   0.2581
   11   26   1       0.3400   0.2581
   11   28   1       0.3400   0.2581
   11   30   1       0.3400   0.2581
   11   32   1       0.3400   0.2581
   11   34   1       0.3400   0.2581
   11   36   1       0.3400   0.2581
   11   38   1       0.3400   0.2288
   11   40   1       0.3400   0.2288
   11   42   1       0.3400   0.2288
   11   44   1       0.3226   0.5291
   11   46   1       0.3259   0.1927
   11   48   1       0.2234   0.0978
   11   50   1       0.2234   0.0978
   11   52   1       0.3025   0.0978
   11   54   1       0.2936   0.0978
   11   56   1       0.2846   0.0978
   11   58   1       0.2757   0.0978
   11   60   1       0.3000   0.0956
   11   62   1       0.2955   0.0956
   11   64   1       0.2911   0.0956
   11   66   1       0.1700   0.0000
   11   68   1       0.2234   0.0978
   11   70   1       0.1700   0.0000
   11   72   1       0.2680   0.0978
   11   74   1       0.3793   0.4935
   11   76   1       0.3900   0.2468
   11   78   1       0.3364   0.0411
   11   80   1       0.6154   0.2468
   11   82   1       0.2406   0.7381
   11   84   1       0.3325   0.3218
   11   86   1       0.3325   0.3218
   11   88   1       0.3325   0.3218
   11   90   1       0.3325   0.3218
   11   92   1       0.3325   0.3218
   11   94   1       0.3325   0.3218
   11   96   1       0.3325   0.3218
   11   98   1       0.3180   0.3576
   11  100   1       0.3180   0.3576
   11  102   1       0.3275   0.3043
   11  104   1       0.3233   0.3579
   11  106   1       0.3233   0.3579
   11  108   1       0.3200   0.3218
   11  110   1       0.3180   0.3576
   11  112   1       0.3571   0.3490
   11  114   1       0.3482   0.3902
   11  116   1       0.3482   0.3902
   11  118   1       0.3400   0.2288
   11  120   1       0.1700   0.0000
   11  122   1       0.4068   0.0141
   11  124   1       0.4333   0.0102
   11  132   1       0.2713   0.1056
   11  134   1       0.2680   0.0872
   11  136   1       0.1700   0.0000
   11  138   1       0.3282   0.3148
   11  140   1       0.1700   0.0000
   11  142   1       0.3277   0.3072
   11  144   1       0.1700   0.0000
   11  146   1       0.3260   0.3121
   11  148   1       0.1700   0.0000
   11  150   1       0.3282   0.3813
   11  152   1       0.1700   0.0000
   11  154   1       0.1700   0.0000
   11  156   1       0.1700   0.0000
   11  158   1       0.3400   0.2581
   11  160   1       0.3025   0.0978
   11  162   1       0.3400   0.2288
   11  164   1       0.3180   0.3576
   11  166   1       0.3325   0.3218
   11  168   1       0.2936   0.0978
   11  170   1       0.3400   0.2288
   11  172   1       0.3000   0.0956
   11  176   1       0.3325   0.3218
   11  178   1       0.2680   0.0978
   11  180   1       0.3325   0.3218
   11  182   1       0.2234   0.0978
   13    0   1       0.1700   0.0000
   13    2   1       0.3400   0.2288
   13    4   1       0.3400   0.2288
   13    6   1       0.3400   0.2288
   13    8   1       0.3400   0.2288
   13   10   1       0.3400   0.2288
   13   12   1       0.3400   0.2288
   13   14   1       0.3400   0.2288
   13   16   1       0.3400   0.2288
   13   18   1       0.3400   0.2288
   13   20   1       0.3400   0.2288
   13   22   1       0.3400   0.2288
   13   24   1       0.3400   0.2581
   13   26   1       0.3400   0.2581
   13   28   1       0.3400   0.2581
   13   30   1       0.3400   0.2581
   13   32   1       0.3400   0.2581
   13   34   1       0.3400   0.2581
   13   36   1       0.3400   0.2581
   13   38   1       0.3400   0.2288
   13   40   1       0.3400   0.2288
   13   42   1       0.3400   0.2288
   13   44   1       0.3226   0.5291
   13   46   1       0.3259   0.1927
   13   48   1       0.2234   0.0978
   13   50   1       0.2234   0.0978
   13   52   1       0.3025   0.0978
   13   54   1       0.2936   0.0978
   13   56   1       0.2846   0.0978
   13   58   1       0.2757   0.0978
   13   60   1       0.3000   0.0956
   13   62   1       0.2955   0.0956
   13   64   1       0.2911   0.0956
   13   66   1       0.1700   0.0000
   13   68   1       0.2234   0.0978
   13   70   1       0.1700   0.0000
   13   72   1       0.2680   0.0978
   13   74   1       0.3793   0.4935
   13   76   1       0.3900   0.2468
   13   78   1       0.3364   0.0411
   13   80   1       0.6154   0.2468
   13   82   1       0.2406   0.7381
   13   84   1       0.3325   0.3218
   13   86   1       0.3325   0.3218
   13   88   1       0.3325   0.3218
   13   90   1       0.3325   0.3218
   13   92   1       0.3325   0.3218
   13   94   1       0.3325   0.3218
   13   96   1       0.3325   0.3218
   13   98   1       0.3180   0.3576
   13  100   1       0.3180   0.3576
   13  102   1       0.3275   0.3043
   13  104   1       0.3233   0.3579
   13  106   1       0.3233   0.3579
   13  108   1       0.3200   0.3218
   13  110   1       0.3180   0.3576
   13  112   1       0.3571   0.3490
   13  114   1       0.3482   0.3902
   13  116   1       0.3482   0.3902
   13  118   1       0.3400   0.2288
   13  120   1       0.1700   0.0000
   13  122   1       0.4068   0.0141
   13  124   1       0.4333   0.0102
   13  132   1       0.2713   0.1056
   13  134   1       0.2680   0.0872
   13  136   1       0.1700   0.0000
   13  138   1       0.3282   0.3148
   13  140   1       0.1700   0.0000
   13  142   1       0.3277   0.3072
   13  144   1       0.1700   0.0000
   13  146   1       0.3260   0.3121
   13  148   1       0.1700   0.0000
   13  150   1       0.3282   0.3813
   13  152   1       0.1700   0.0000
   13  154   1       0.1700   0.0000
   13  156   1       0.1700   0.0000
   13  158   1       0.3400   0.2581
   13  160   1       0.3025   0.0978
   13  162   1       0.3400   0.2288
   13  164   1       0.3180   0.3576
   13  166   1       0.3325   0.3218
   13  168   1       0.2936   0.0978
   13  170   1       0.3400   0.2288
   13  172   1       0.3000   0.0956
   13  176   1       0.3325   0.3218
   13  178   1       0.2680   0.0978
   13  180   1       0.3325   0.3218
   13  182   1       0.2234   0.0978
   15    0   1       0.1700   0.0000
   15    2   1       0.3400   0.2288
   15    4   1       0.3400   0.2288
   15    6   1       0.3400   0.2288
   15    8   1       0.3400   0.2288
   15   10   1       0.3400   0.2288
   15   12   1       0.3400   0.2288
   15   14   1       0.3400   0.2288
   15   16   1       0.3400   0.2288
   15   18   1       0.3400   0.2288
   15   20   1       0.3400   0.2288
   15   22   1       0.3400   0.2288
   15   24   1       0.3400   0.2581
   15   26   1       0.3400   0.2581
   15   28   1       0.3400   0.2581
   15   30   1       0.3400   0.2581
   15   32   1       0.3400   0.2581
   15   34   1       0.3400   0.2581
   15   36   1       0.3400   0.2581
   15   38   1       0.3400   0.2288
   15   40   1       0.3400   0.2288
   15   42   1       0.3400   0.2288
   15   44   1       0.3226   0.5291
   15   46   1       0.3259   0.1927
   15   48   1       0.2234   0.0978
   15   50   1       0.2234   0.0978
   15   52   1       0.3025   0.0978
   15   54   1       0.2936   0.0978
   15   56   1       0.2846   0.0978
   15   58   1       0.2757   0.0978
   15   60   1       0.3000   0.0956
   15   62   1       0.2955   0.0956
   15   64   1       0.2911   0.0956
   15   66   1       0.1700   0.0000
   15   68   1       0.2234   0.0978
   15   70   1       0.1700   0.0000
   15   72   1       0.2680   0.0978
   15   74   1       0.3793   0.4935
   15   76   1       0.3900   0.2468
   15   78   1       0.3364   0.0411
   15   80   1       0.6154   0.2468
   15   82   1       0.2406   0.7381
   15   84   1       0.3325   0.3218
   15   86   1       0.3325   0.3218
   15   88   1       0.3325   0.3218
   15   90   1       0.3325   0.3218
   15   92   1       0.3325   0.3218
   15   94   1       0.3325   0.3218
   15   96   1       0.3325   0.3218
   15   98   1       0.3180   0.3576
   15  100   1       0.3180   0.3576
   15  102   1       0.3275   0.3043
   15  104   1       0.3233   0.3579
   15  106   1       0.3233   0.3579
   15  108   1       0.3200   0.3218
   15  110   1       0.3180   0.3576
   15  112   1       0.3571   0.3490
   15  114   1       0.3482   0.3902
   15  116   1       0.3482   0.3902
   15  118   1       0.3400   0.2288
   15  120   1       0.1700   0.0000
   15  122   1       0.4068   0.0141
   15  124   1       0.4333   0.0102
   15  132   1       0.2713   0.1056
   15  134   1       0.2680   0.0872
   15  136   1       0.1700   0.0000
   15  138   1       0.3282   0.3148
   15  140   1       0.1700   0.0000
   15  142   1       0.3277   0.3072
   15  144   1       0.1700   0.0000
   15  146   1       0.3260   0.3121
   15  148   1       0.1700   0.0000
   15  150   1       0.3282   0.3813
   15  152   1       0.1700   0.0000
   15  154   1       0.1700   0.0000
   15  156   1       0.1700   0.0000
   15  158   1       0.3400   0.2581
   15  160   1       0.3025   0.0978
   15  162   1       0.3400   0.2288
   15  164   1       0.3180   0.3576
   15  166   1       0.3325   0.3218
   15  168   1       0.2936   0.0978
   15  170   1       0.3400   0.2288
   15  172   1       0.3000   0.0956
   15  176   1       0.3325   0.3218
   15  178   1       0.2680   0.0978
   15  180   1       0.3325   0.3218
   15  182   1       0.2234   0.0978
   17    0   1       0.1700   0.0000
   17    2   1       0.3400   0.2288
   17    4   1       0.3400   0.2288
   17    6   1       0.3400   0.2288
   17    8   1       0.3400   0.2288
   17   10   1       0.3400   0.2288
   17   12   1       0.3400   0.2288
   17   14   1       0.3400   0.2288
   17   16   1       0.3400   0.2288
   17   18   1       0.3400   0.2288
   17   20   1       0.3400   0.2288
   17   22   1       0.3400   0.2288
   17   24   1       0.3400   0.2581
   17   26   1       0.3400   0.2581
   17   28   1       0.3400   0.2581
   17   30   1       0.3400   0.2581
   17   32   1       0.3400   0.2581
   17   34   1       0.3400   0.2581
   17   36   1       0.3400   0.2581
   17   38   1       0.3400   0.2288
   17   40   1       0.3400   0.2288
   17   42   1       0.3400   0.2288
   17   44   1       0.3226   0.5291
   17   46   1       0.3259   0.1927
   17   48   1       0.2234   0.0978
   17   50   1       0.2234   0.0978
   17   52   1       0.3025   0.0978
   17   54   1       0.2936   0.0978
   17   56   1       0.2846   0.0978
   17   58   1       0.2757   0.0978
   17   60   1       0.3000   0.0956
   17   62   1       0.2955   0.0956
   17   64   1       0.2911   0.0956
   17   66   1       0.1700   0.0000
   17   68   1       0.2234   0.0978
   17   70   1       0.1700   0.0000
   17   72   1       0.2680   0.0978
   17   74   1       0.3793   0.4935
   17   76   1       0.3900   0.2468
   17   78   1       0.3364   0.0411
   17   80   1       0.6154   0.2468
   17   82   1       0.2406   0.7381
   17   84   1       0.3325   0.3218
   17   86   1       0.3325   0.3218
   17   88   1       0.3325   0.3218
   17   90   1       0.3325   0.3218
   17   92   1       0.3325   0.3218
   17   94   1       0.3325   0.3218
   17   96   1       0.3325   0.3218
   17   98   1       0.3180   0.3576
   17  100   1       0.3180   0.3576
   17  102   1       0.3275   0.3043
   17  104   1       0.3233   0.3579
   17  106   1       0.3233   0.3579
   17  108   1       0.3200   0.3218
   17  110   1       0.3180   0.3576
   17  112   1       0.3571   0.3490
   17  114   1       0.3482   0.3902
   17  116   1       0.3482   0.3902
   17  118   1       0.3400   0.2288
   17  120   1       0.1700   0.0000
   17  122   1       0.4068   0.0141
   17  124   1       0.4333   0.0102
   17  132   1       0.2713   0.1056
   17  134   1       0.2680   0.0872
   17  136   1       0.1700   0.0000
   17  138   1       0.3282   0.3148
   17  140   1       0.1700   0.0000
   17  142   1       0.3277   0.3072
   17  144   1       0.1700   0.0000
   17  146   1       0.3260   0.3121
   17  148   1       0.1700   0.0000
   17  150   1       0.3282   0.3813
   17  152   1       0.1700   0.0000
   17  154   1       0.1700   0.0000
   17  156   1       0.1700   0.0000
   17  158   1       0.3400   0.2581
   17  160   1       0.3025   0.0978
   17  162   1       0.3400   0.2288
   17  164   1       0.3180   0.3576
   17  166   1       0.3325   0.3218
   17  168   1       0.2936   0.0978
   17  170   1       0.3400   0.2288
   17  172   1       0.3000   0.0956
   17  176   1       0.3325   0.3218
   17  178   1       0.2680   0.0978
   17  180   1       0.3325   0.3218
   17  182   1       0.2234   0.0978
   19    0   1       0.1700   0.0000
   19    2   1       0.3400   0.2288
   19    4   1       0.3400   0.2288
   19    6   1       0.3400   0.2288
   19    8   1       0.3400   0.2288
   19   10   1       0.3400   0.2288
   19   12   1       0.3400   0.2288
   19   14   1       0.3400   0.2288
   19   16   1       0.3400   0.2288
   19   18   1       0.3400   0.2288
   19   20   1       0.3400   0.2288
   19   22   1       0.3400   0.2288
   19   24   1       0.3400   0.2581
   19   26   1       0.3400   0.2581
   19   28   1       0.3400   0.2581
   19   30   1       0.3400   0.2581
   19   32   1       0.3400   0.2581
   19   34   1       0.3400   0.2581
   19   36   1       0.3400   0.2581
   19   38   1       0.3400   0.2288
   19   40   1       0.3400   0.2288
   19   42   1       0.3400   0.2288
   19   44   1       0.3226   0.5291
   19   46   1       0.3259   0.1927
   19   48   1       0.2234   0.0978
   19   50   1       0.2234   0.0978
   19   52   1       0.3025   0.0978
   19   54   1       0.2936   0.0978
   19   56   1       0.2846   0.0978
   19   58   1       0.2757   0.0978
   19   60   1       0.3000   0.0956
   19   62   1       0.2955   0.0956
   19   64   1       0.2911   0.0956
   19   66   1       0.1700   0.0000
   19   68   1       0.2234   0.0978
   19   70   1       0.1700   0.0000
   19   72   1       0.2680   0.0978
   19   74   1       0.3793   0.4935
   19   76   1       0.3900   0.2468
   19   78   1       0.3364   0.0411
   19   80   1       0.6154   0.2468
   19   82   1       0.2406   0.7381
   19   84   1       0.3325   0.3218
   19   86   1       0.3325   0.3218
   19   88   1       0.3325   0.3218
   19   90   1       0.3325   0.3218
   19   92   1       0.3325   0.3218
   19   94   1       0.3325   0.3218
   19   96   1       0.3325   0.3218
   19   98   1       0.3180   0.3576
   19  100   1       0.3180   0.3576
   19  102   1       0.3275   0.3043
   19  104   1       0.3233   0.3579
   19  106   1       0.3233   0.3579
   19  108   1       0.3200   0.3218
   19  110   1       0.3180   0.3576
   19  112   1       0.3571   0.3490
   19  114   1       0.3482   0.3902
   19  116   1       0.3482   0.3902
   19  118   1       0.3400   0.2288
   19  120   1       0.1700   0.0000
   19  122   1       0.4068   0.0141
   19  124   1       0.4333   0.0102
   19  132   1       0.2713   0.1056
   19  134   1       0.2680   0.0872
   19  136   1       0.1700   0.0000
   19  138   1       0.3282   0.3148
   19  140   1       0.1700   0.0000
   19  142   1       0.3277   0.3072
   19  144   1       0.1700   0.0000
   19  146   1       0.3260   0.3121
   19  148   1       0.1700   0.0000
   19  150   1       0.3282   0.3813
   19  152   1       0.1700   0.0000
   19  154   1       0.1700   0.0000
   19  156   1       0.1700   0.0000
   19  158   1       0.3400   0.2581
   19  160   1       0.3025   0.0978
   19  162   1       0.3400   0.2288
   19  164   1       0.3180   0.3576
   19  166   1       0.3325   0.3218
   19  168   1       0.2936   0.0978
   19  170   1       0.3400   0.2288
   19  172   1       0.3000   0.0956
   19  176   1       0.3325   0.3218
   19  178   1       0.2680   0.0978
   19  180   1       0.3325   0.3218
   19  182   1       0.2234   0.0978
   21    0   1       0.1700   0.0000
   21    2   1       0.3400   0.2288
   21    4   1       0.3400   0.2288
   21    6   1       0.3400   0.2288
   21    8   1       0.3400   0.2288
   21   10   1       0.3400   0.2288
   21   12   1       0.3400   0.2288
   21   14   1       0.3400   0.2288
   21   16   1       0.3400   0.2288
   21   18   1       0.3400   0.2288
   21   20   1       0.3400   0.2288
   21   22   1       0.3400   0.2288
   21   24   1       0.3400   0.2581
   21   26   1       0.3400   0.2581
   21   28   1       0.3400   0.2581
   21   30   1       0.3400   0.2581
   21   32   1       0.3400   0.2581
   21   34   1       0.3400   0.2581
   21   36   1       0.3400   0.2581
   21   38   1       0.3400   0.2288
   21   40   1       0.3400   0.2288
   21   42   1       0.3400   0.2288
   21   44   1       0.3226   0.5291
   21   46   1       0.3259   0.1927
   21   48   1       0.2234   0.0978
   21   50   1       0.2234   0.0978
   21   52   1       0.3025   0.0978
   21   54   1       0.2936   0.0978
   21   56   1       0.2846   0.0978
   21   58   1       0.2757   0.0978
   21   60   1       0.3000   0.0956
   21   62   1       0.2955   0.0956
   21   64   1       0.2911   0.0956
   21   66   1       0.1700   0.0000
   21   68   1       0.2234   0.0978
   21   70   1       0.1700   0.0000
   21   72   1       0.2680   0.0978
   21   74   1       0.3793   0.4935
   21   76   1       0.3900   0.2468
   21   78   1       0.3364   0.0411
   21   80   1       0.6154   0.2468
   21   82   1       0.2406   0.7381
   21   84   1       0.3325   0.3218
   21   86   1       0.3325   0.3218
   21   88   1       0.3325   0.3218
   21   90   1       0.3325   0.3218
   21   92   1       0.3325   0.3218
   21   94   1       0.3325   0.3218
   21   96   1       0.3325   0.3218
   21   98   1       0.3180   0.3576
   21  100   1       0.3180   0.3576
   21  102   1       0.3275   0.3043
   21  104   1       0.3233   0.3579
   21  106   1       0.3233   0.3579
   21  108   1       0.3200   0.3218
   21  110   1       0.3180   0.3576
   21  112   1       0.3571   0.3490
   21  114   1       0.3482   0.3902
   21  116   1       0.3482   0.3902
   21  118   1       0.3400   0.2288
   21  120   1       0.1700   0.0000
   21  122   1       0.4068   0.0141
   21  124   1       0.4333   0.0102
   21  132   1       0.2713   0.1056
   21  134   1       0.2680   0.0872
   21  136   1       0.1700   0.0000
   21  138   1       0.3282   0.3148
   21  140   1       0.1700   0.0000
   21  142   1       0.3277   0.3072
   21  144   1       0.1700   0.0000
   21  146   1       0.3260   0.3121
   21  148   1       0.1700   0.0000
   21  150   1       0.3282   0.3813
   21  152   1       0.1700   0.0000
   21  154   1       0.1700   0.0000
   21  156   1       0.1700   0.0000
   21  158   1       0.3400   0.2581
   21  160   1       0.3025   0.0978
   21  162   1       0.3400   0.2288
   21  164   1       0.3180   0.3576
   21  166   1       0.3325   0.3218
   21  168   1       0.2936   0.0978
   21  170   1       0.3400   0.2288
   21  172   1       0.3000   0.0956
   21  176   1       0.3325   0.3218
   21  178   1       0.2680   0.0978
   21  180   1       0.3325   0.3218
   21  182   1       0.2234   0.0978
   23    0   1       0.1700   0.0000
   23    2   1       0.3400   0.2288
   23    4   1       0.3400   0.2288
   23    6   1       0.3400   0.2288
   23    8   1       0.3400   0.2288
   23   10   1       0.3400   0.2288
   23   12   1       0.3400   0.2288
   23   14   1       0.3400   0.2288
   23   16   1       0.3400   0.2288
   23   18   1       0.3400   0.2288
   23   20   1       0.3400   0.2288
   23   22   1       0.3400   0.2288
   23   24   1       0.3400   0.2581
   23   26   1       0.3400   0.2581
   23   28   1       0.3400   0.2581
   23   30   1       0.3400   0.2581
   23   32   1       0.3400   0.2581
   23   34   1       0.3400   0.2581
   23   36   1       0.3400   0.2581
   23   38   1       0.3400   0.2288
   23   40   1       0.3400   0.2288
   23   42   1       0.3400   0.2288
   23   44   1       0.3226   0.5291
   23   46   1       0.3259   0.1927
   23   48   1       0.2234   0.0978
   23   50   1       0.2234   0.0978
   23   52   1       0.3025   0.0978
   23   54   1       0.2936   0.0978
   23   56   1       0.2846   0.0978
   23   58   1       0.2757   0.0978
   23   60   1       0.3000   0.0956
   23   62   1       0.2955   0.0956
   23   64   1       0.2911   0.0956
   23   66   1       0.1700   0.0000
   23   68   1       0.2234   0.0978
   23   70   1       0.1700   0.0000
   23   72   1       0.2680   0.0978
   23   74   1       0.3793   0.4935
   23   76   1       0.3900   0.2468
   23   78   1       0.3364   0.0411
   23   80   1       0.6154   0.2468
   23   82   1       0.2406   0.7381
   23   84   1       0.3325   0.3218
   23   86   1       0.3325   0.3218
   23   88   1       0.3325   0.3218
   23   90   1       0.3325   0.3218
   23   92   1       0.3325   0.3218
   23   94   1       0.3325   0.3218
   23   96   1       0.3325   0.3218
   23   98   1       0.3180   0.3576
   23  100   1       0.3180   0.3576
   23  102   1       0.3275   0.3043
   23  104   1       0.3233   0.3579
   23  106   1       0.3233   0.3579
   23  108   1       0.3200   0.3218
   23  110   1       0.3180   0.3576
   23  112   1       0.3571   0.3490
   23  114   1       0.3482   0.3902
   23  116   1       0.3482   0.3902
   23  118   1       0.3400   0.2288
   23  120   1       0.1700   0.0000
   23  122   1       0.4068   0.0141
   23  124   1       0.4333   0.0102
   23  132   1       0.2713   0.1056
   23  134   1       0.2680   0.0872
   23  136   1       0.1700   0.0000
   23  138   1       0.3282   0.3148
   23  140   1       0.1700   0.0000
   23  142   1       0.3277   0.3072
   23  144   1       0.1700   0.0000
   23  146   1       0.3260   0.3121
   23  148   1       0.1700   0.0000
   23  150   1       0.3282   0.3813
   23  152   1       0.1700   0.0000
   23  154   1       0.1700   0.0000
   23  156   1       0.1700   0.0000
   23  158   1       0.3400   0.2581
   23  160   1       0.3025   0.0978
   23  162   1       0.3400   0.2288
   23  164   1       0.3180   0.3576
   23  166   1       0.3325   0.3218
   23  168   1       0.2936   0.0978
   23  170   1       0.3400   0.2288
   23  172   1       0.3000   0.0956
   23  176   1       0.3325   0.3218
   23  178   1       0.2680   0.0978
   23  180   1       0.3325   0.3218
   23  182   1       0.2234   0.0978
   25    0   1       0.1700   0.0000
   25    2   1       0.3400   0.2581
   25    4   1       0.3400   0.2581
   25    6   1       0.3400   0.2581
   25    8   1       0.3400   0.2581
   25   10   1       0.3400   0.2581
   25   12   1       0.3400   0.2581
   25   14   1       0.3400   0.2581
   25   16   1       0.3400   0.2581
   25   18   1       0.3400   0.2581
   25   20   1       0.3400   0.2581
   25   22   1       0.3400   0.2581
   25   24   1       0.3400   0.2911
   25   26   1       0.3400   0.2911
   25   28   1       0.3400   0.2911
   25   30   1       0.3400   0.2911
   25   32   1       0.3400   0.2911
   25   34   1       0.3400   0.2911
   25   36   1       0.3400   0.2911
   25   38   1       0.3400   0.2581
   25   40   1       0.3400   0.2581
   25   42   1       0.3400   0.2581
   25   44   1       0.3226   0.5968
   25   46   1       0.3259   0.2174
   25   48   1       0.2234   0.1103
   25   50   1       0.2234   0.1103
   25   52   1       0.3025   0.1103
   25   54   1       0.2936   0.1103
   25   56   1       0.2846   0.1103
   25   58   1       0.2757   0.1103
   25   60   1       0.3000   0.1078
   25   62   1       0.2955   0.1078
   25   64   1       0.2911   0.1078
   25   66   1       0.1700   0.0000
   25   68   1       0.2234   0.1103
   25   70   1       0.1700   0.0000
   25   72   1       0.2680   0.1103
   25   74   1       0.3793   0.5567
   25   76   1       0.3900   0.2783
   25   78   1       0.3364   0.0463
   25   80   1       0.6154   0.2783
   25   82   1       0.2406   0.8325
   25   84   1       0.3325   0.3629
   25   86   1       0.3325   0.3629
   25   88   1       0.3325   0.3629
   25   90   1       0.3325   0.3629
   25   92   1       0.3325   0.3629
   25   94   1       0.3325   0.3629
   25   96   1       0.3325   0.3629
   25   98   1       0.3180   0.4033
   25  100   1       0.3180   0.4033
   25  102   1       0.3275   0.3433
   25  104   1       0.3233   0.4037
   25  106   1       0.3233   0.4037
   25  108   1       0.3200   0.3629
   25  110   1       0.3180   0.4033
   25  112   1       0.3571   0.3936
   25  114   1       0.3482   0.4401
   25  116   1       0.3482   0.4401
   25  118   1       0.3400   0.2581
   25  120   1       0.1700   0.0000
   25  122   1       0.4068   0.0159
   25  124   1       0.4333   0.0115
   25  132   1       0.2713   0.1191
   25  134   1       0.2680   0.0984
   25  136   1       0.1700   0.0000
   25  138   1       0.3282   0.3551
   25  140   1       0.1700   0.0000
   25  142   1       0.3277   0.3465
   25  144   1       0.1700   0.0000
   25  146   1       0.3260   0.3521
   25  148   1       0.1700   0.0000
   25  150   1       0.3282   0.4301
   25  152   1       0.1700   0.0000
   25  154   1       0.1700   0.0000
   25  156   1       0.1700   0.0000
   25  158   1       0.3400   0.2911
   25  160   1       0.3025   0.1103
   25  162   1       0.3400   0.2581
   25  164   1       0.3180   0.4033
   25  166   1       0.3325   0.3629
   25  168   1       0.2936   0.1103
   25  170   1       0.3400   0.2581
   25  172   1       0.3000   0.1078
   25  176   1       0.3325   0.3629
   25  178   1       0.2680   0.1103
   25  180   1       0.3325   0.3629
   25  182   1       0.2234   0.1103
   27    0   1       0.1700   0.0000
   27    2   1       0.3400   0.2581
   27    4   1       0.3400   0.2581
   27    6   1       0.3400   0.2581
   27    8   1       0.3400   0.2581
   27   10   1       0.3400   0.2581
   27   12   1       0.3400   0.2581
   27   14   1       0.3400   0.2581
   27   16   1       0.3400   0.2581
   27   18   1       0.3400   0.2581
   27   20   1       0.3400   0.2581
   27   22   1       0.3400   0.2581
   27   24   1       0.3400   0.2911
   27   26   1       0.3400   0.2911
   27   28   1       0.3400   0.2911
   27   30   1       0.3400   0.2911
   27   32   1       0.3400   0.2911
   27   34   1       0.3400   0.2911
   27   36   1       0.3400   0.2911
   27   38   1       0.3400   0.2581
   27   40   1       0.3400   0.2581
   27   42   1       0.3400   0.2581
   27   44   1       0.3226   0.5968
   27   46   1       0.3259   0.2174
   27   48   1       0.2234   0.1103
   27   50   1       0.2234   0.1103
   27   52   1       0.3025   0.1103
   27   54   1       0.2936   0.1103
   27   56   1       0.2846   0.1103
   27   58   1       0.2757   0.1103
   27   60   1       0.3000   0.1078
   27   62   1       0.2955   0.1078
   27   64   1       0.2911   0.1078
   27   66   1       0.1700   0.0000
   27   68   1       0.2234   0.1103
   27   70   1       0.1700   0.0000
   27   72   1       0.2680   0.1103
   27   74   1       0.3793   0.5567
   27   76   1       0.3900   0.2783
   27   78   1       0.3364   0.0463
   27   80   1       0.6154   0.2783
   27   82   1       0.2406   0.8325
   27   84   1       0.3325   0.3629
   27   86   1       0.3325   0.3629
   27   88   1       0.3325   0.3629
   27   90   1       0.3325   0.3629
   27   92   1       0.3325   0.3629
   27   94   1       0.3325   0.3629
   27   96   1       0.3325   0.3629
   27   98   1       0.3180   0.4033
   27  100   1       0.3180   0.4033
   27  102   1       0.3275   0.3433
   27  104   1       0.3233   0.4037
   27  106   1       0.3233   0.4037
   27  108   1       0.3200   0.3629
   27  110   1       0.3180   0.4033
   27  112   1       0.3571   0.3936
   27  114   1       0.3482   0.4401
   27  116   1       0.3482   0.4401
   27  118   1       0.3400   0.2581
   27  120   1       0.1700   0.0000
   27  122   1       0.4068   0.0159
   27  124   1       0.4333   0.0115
   27  132   1       0.2713   0.1191
   27  134   1       0.2680   0.0984
   27  136   1       0.1700   0.0000
   27  138   1       0.3282   0.3551
   27  140   1       0.1700   0.0000
   27  142   1       0.3277   0.3465
   27  144   1       0.1700   0.0000
   27  146   1       0.3260   0.3521
   27  148   1       0.1700   0.0000
   27  150   1       0.3282   0.4301
   27  152   1       0.1700   0.0000
   27  154   1       0.1700   0.0000
   27  156   1       0.1700   0.0000
   27  158   1       0.3400   0.2911
   27  160   1       0.3025   0.1103
   27  162   1       0.3400   0.2581
   27  164   1       0.3180   0.4033
   27  166   1       0.3325   0.3629
   27  168   1       0.2936   0.1103
   27  170   1       0.3400   0.2581
   27  172   1       0.3000   0.1078
   27  176   1       0.3325   0.3629
   27  178   1       0.2680   0.1103
   27  180   1       0.3325   0.3629
   27  182   1       0.2234   0.1103
   29    0   1       0.1700   0.0000
   29    2   1       0.3400   0.2581
   29    4   1       0.3400   0.2581
   29    6   1       0.3400   0.2581
   29    8   1       0.3400   0.2581
   29   10   1       0.3400   0.2581
   29   12   1       0.3400   0.2581
   29   14   1       0.3400   0.2581
   29   16   1       0.3400   0.2581
   29   18   1       0.3400   0.2581
   29   20   1       0.3400   0.2581
   29   22   1       0.3400   0.2581
   29   24   1       0.3400   0.2911
   29   26   1       0.3400   0.2911
   29   28   1       0.3400   0.2911
   29   30   1       0.3400   0.2911
   29   32   1       0.3400   0.2911
   29   34   1       0.3400   0.2911
   29   36   1       0.3400   0.2911
   29   38   1       0.3400   0.2581
   29   40   1       0.3400   0.2581
   29   42   1       0.3400   0.2581
   29   44   1       0.3226   0.5968
   29   46   1       0.3259   0.2174
   29   48   1       0.2234   0.1103
   29   50   1       0.2234   0.1103
   29   52   1       0.3025   0.1103
   29   54   1       0.2936   0.1103
   29   56   1       0.2846   0.1103
   29   58   1       0.2757   0.1103
   29   60   1       0.3000   0.1078
   29   62   1       0.2955   0.1078
   29   64   1       0.2911   0.1078
   29   66   1       0.1700   0.0000
   29   68   1       0.2234   0.1103
   29   70   1       0.1700   0.0000
   29   72   1       0.2680   0.1103
   29   74   1       0.3793   0.5567
   29   76   1       0.3900   0.2783
   29   78   1       0.3364   0.0463
   29   80   1       0.6154   0.2783
   29   82   1       0.2406   0.8325
   29   84   1       0.3325   0.3629
   29   86   1       0.3325   0.3629
   29   88   1       0.3325   0.3629
   29   90   1       0.3325   0.3629
   29   92   1       0.3325   0.3629
   29   94   1       0.3325   0.3629
   29   96   1       0.3325   0.3629
   29   98   1       0.3180   0.4033
   29  100   1       0.3180   0.4033
   29  102   1       0.3275   0.3433
   29  104   1       0.3233   0.4037
   29  106   1       0.3233   0.4037
   29  108   1       0.3200   0.3629
   29  110   1       0.3180   0.4033
   29  112   1       0.3571   0.3936
   29  114   1       0.3482   0.4401
   29  116   1       0.3482   0.4401
   29  118   1       0.3400   0.2581
   29  120   1       0.1700   0.0000
   29  122   1       0.4068   0.0159
   29  124   1       0.4333   0.0115
   29  132   1       0.2713   0.1191
   29  134   1       0.2680   0.0984
   29  136   1       0.1700   0.0000
   29  138   1       0.3282   0.3551
   29  140   1       0.1700   0.0000
   29  142   1       0.3277   0.3465
   29  144   1       0.1700   0.0000
   29  146   1       0.3260   0.3521
   29  148   1       0.1700   0.0000
   29  150   1       0.3282   0.4301
   29  152   1       0.1700   0.0000
   29  154   1       0.1700   0.0000
   29  156   1       0.1700   0.0000
   29  158   1       0.3400   0.2911
   29  160   1       0.3025   0.1103
   29  162   1       0.3400   0.2581
   29  164   1       0.3180   0.4033
   29  166   1       0.3325   0.3629
   29  168   1       0.2936   0.1103
   29  170   1       0.3400   0.2581
   29  172   1       0.3000   0.1078
   29  176   1       0.3325   0.3629
   29  178   1       0.2680   0.1103
   29  180   1       0.3325   0.3629
   29  182   1       0.2234   0.1103
   31    0   1       0.1700   0.0000
   31    2   1       0.3400   0.2581
   31    4   1       0.3400   0.2581
   31    6   1       0.3400   0.2581
   31    8   1       0.3400   0.2581
   31   10   1       0.3400   0.2581
   31   12   1       0.3400   0.2581
   31   14   1       0.3400   0.2581
   31   16   1       0.3400   0.2581
   31   18   1       0.3400   0.2581
   31   20   1       0.3400   0.2581
   31   22   1       0.3400   0.2581
   31   24   1       0.3400   0.2911
   31   26   1       0.3400   0.2911
   31   28   1       0.3400   0.2911
   31   30   1       0.3400   0.2911
   31   32   1       0.3400   0.2911
   31   34   1       0.3400   0.2911
   31   36   1       0.3400   0.2911
   31   38   1       0.3400   0.2581
   31   40   1       0.3400   0.2581
   31   42   1       0.3400   0.2581
   31   44   1       0.3226   0.5968
   31   46   1       0.3259   0.2174
   31   48   1       0.2234   0.1103
   31   50   1       0.2234   0.1103
   31   52   1       0.3025   0.1103
   31   54   1       0.2936   0.1103
   31   56   1       0.2846   0.1103
   31   58   1       0.2757   0.1103
   31   60   1       0.3000   0.1078
   31   62   1       0.2955   0.1078
   31   64   1       0.2911   0.1078
   31   66   1       0.1700   0.0000
   31   68   1       0.2234   0.1103
   31   70   1       0.1700   0.0000
   31   72   1       0.2680   0.1103
   31   74   1       0.3793   0.5567
   31   76   1       0.3900   0.2783
   31   78   1       0.3364   0.0463
   31   80   1       0.6154   0.2783
   31   82   1       0.2406   0.8325
   31   84   1       0.3325   0.3629
   31   86   1       0.3325   0.3629
   31   88   1       0.3325   0.3629
   31   90   1       0.3325   0.3629
   31   92   1       0.3325   0.3629
   31   94   1       0.3325   0.3629
   31   96   1       0.3325   0.3629
   31   98   1       0.3180   0.4033
   31  100   1       0.3180   0.4033
   31  102   1       0.3275   0.3433
   31  104   1       0.3233   0.4037
   31  106   1       0.3233   0.4037
   31  108   1       0.3200   0.3629
   31  110   1       0.3180   0.4033
   31  112   1       0.3571   0.3936
   31  114   1       0.3482   0.4401
   31  116   1       0.3482   0.4401
   31  118   1       0.3400   0.2581
   31  120   1       0.1700   0.0000
   31  122   1       0.4068   0.0159
   31  124   1       0.4333   0.0115
   31  132   1       0.2713   0.1191
   31  134   1       0.2680   0.0984
   31  136   1       0.1700   0.0000
   31  138   1       0.3282   0.3551
   31  140   1       0.1700   0.0000
   31  142   1       0.3277   0.3465
   31  144   1       0.1700   0.0000
   31  146   1       0.3260   0.3521
   31  148   1       0.1700   0.0000
   31  150   1       0.3282   0.4301
   31  152   1       0.1700   0.0000
   31  154   1       0.1700   0.0000
   31  156   1       0.1700   0.0000
   31  158   1       0.3400   0.2911
   31  160   1       0.3025   0.1103
   31  162   1       0.3400   0.2581
   31  164   1       0.3180   0.4033
   31  166   1       0.3325   0.3629
   31  168   1       0.2936   0.1103
   31  170   1       0.3400   0.2581
   31  172   1       0.3000   0.1078
   31  176   1       0.3325   0.3629
   31  178   1       0.2680   0.1103
   31  180   1       0.3325   0.3629
   31  182   1       0.2234   0.1103
   33    0   1       0.1700   0.0000
   33    2   1       0.3400   0.2581
   33    4   1       0.3400   0.2581
   33    6   1       0.3400   0.2581
   33    8   1       0.3400   0.2581
   33   10   1       0.3400   0.2581
   33   12   1       0.3400   0.2581
   33   14   1       0.3400   0.2581
   33   16   1       0.3400   0.2581
   33   18   1       0.3400   0.2581
   33   20   1       0.3400   0.2581
   33   22   1       0.3400   0.2581
   33   24   1       0.3400   0.2911
   33   26   1       0.3400   0.2911
   33   28   1       0.3400   0.2911
   33   30   1       0.3400   0.2911
   33   32   1       0.3400   0.2911
   33   34   1       0.3400   0.2911
   33   36   1       0.3400   0.2911
   33   38   1       0.3400   0.2581
   33   40   1       0.3400   0.2581
   33   42   1       0.3400   0.2581
   33   44   1       0.3226   0.5968
   33   46   1       0.3259   0.2174
   33   48   1       0.2234   0.1103
   33   50   1       0.2234   0.1103
   33   52   1       0.3025   0.1103
   33   54   1       0.2936   0.1103
   33   56   1       0.2846   0.1103
   33   58   1       0.2757   0.1103
   33   60   1       0.3000   0.1078
   33   62   1       0.2955   0.1078
   33   64   1       0.2911   0.1078
   33   66   1       0.1700   0.0000
   33   68   1       0.2234   0.1103
   33   70   1       0.1700   0.0000
   33   72   1       0.2680   0.1103
   33   74   1       0.3793   0.5567
   33   76   1       0.3900   0.2783
   33   78   1       0.3364   0.0463
   33   80   1       0.6154   0.2783
   33   82   1       0.2406   0.8325
   33   84   1       0.3325   0.3629
   33   86   1       0.3325   0.3629
   33   88   1       0.3325   0.3629
   33   90   1       0.3325   0.3629
   33   92   1       0.3325   0.3629
   33   94   1       0.3325   0.3629
   33   96   1       0.3325   0.3629
   33   98   1       0.3180   0.4033
   33  100   1       0.3180   0.4033
   33  102   1       0.3275   0.3433
   33  104   1       0.3233   0.4037
   33  106   1       0.3233   0.4037
   33  108   1       0.3200   0.3629
   33  110   1       0.3180   0.4033
   33  112   1       0.3571   0.3936
   33  114   1       0.3482   0.4401
   33  116   1       0.3482   0.4401
   33  118   1       0.3400   0.2581
   33  120   1       0.1700   0.0000
   33  122   1       0.4068   0.0159
   33  124   1       0.4333   0.0115
   33  132   1       0.2713   0.1191
   33  134   1       0.2680   0.0984
   33  136   1       0.1700   0.0000
   33  138   1       0.3282   0.3551
   33  140   1       0.1700   0.0000
   33  142   1       0.3277   0.3465
   33  144   1       0.1700   0.0000
   33  146   1       0.3260   0.3521
   33  148   1       0.1700   0.0000
   33  150   1       0.3282   0.4301
   33  152   1       0.1700   0.0000
   33  154   1       0.1700   0.0000
   33  156   1       0.1700   0.0000
   33  158   1       0.3400   0.2911
   33  160   1       0.3025   0.1103
   33  162   1       0.3400   0.2581
   33  164   1       0.3180   0.4033
   33  166   1       0.3325   0.3629
   33  168   1       0.2936   0.1103
   33  170   1       0.3400   0.2581
   33  172   1       0.3000   0.1078
   33  176   1       0.3325   0.3629
   33  178   1       0.2680   0.1103
   33  180   1       0.3325   0.3629
   33  182   1       0.2234   0.1103
   35    0   1       0.1700   0.0000
   35    2   1       0.3400   0.2581
   35    4   1       0.3400   0.2581
   35    6   1       0.3400   0.2581
   35    8   1       0.3400   0.2581
   35   10   1       0.3400   0.2581
   35   12   1       0.3400   0.2581
   35   14   1       0.3400   0.2581
   35   16   1       0.3400   0.2581
   35   18   1       0.3400   0.2581
   35   20   1       0.3400   0.2581
   35   22   1       0.3400   0.2581
   35   24   1       0.3400   0.2911
   35   26   1       0.3400   0.2911
   35   28   1       0.3400   0.2911
   35   30   1       0.3400   0.2911
   35   32   1       0.3400   0.2911
   35   34   1       0.3400   0.2911
   35   36   1       0.3400   0.2911
   35   38   1       0.3400   0.2581
   35   40   1       0.3400   0.2581
   35   42   1       0.3400   0.2581
   35   44   1       0.3226   0.5968
   35   46   1       0.3259   0.2174
   35   48   1       0.2234   0.1103
   35   50   1       0.2234   0.1103
   35   52   1       0.3025   0.1103
   35   54   1       0.2936   0.1103
   35   56   1       0.2846   0.1103
   35   58   1       0.2757   0.1103
   35   60   1       0.3000   0.1078
   35   62   1       0.2955   0.1078
   35   64   1       0.2911   0.1078
   35   66   1       0.1700   0.0000
   35   68   1       0.2234   0.1103
   35   70   1       0.1700   0.0000
   35   72   1       0.2680   0.1103
   35   74   1       0.3793   0.5567
   35   76   1       0.3900   0.2783
   35   78   1       0.3364   0.0463
   35   80   1       0.6154   0.2783
   35   82   1       0.2406   0.8325
   35   84   1       0.3325   0.3629
   35   86   1       0.3325   0.3629
   35   88   1       0.3325   0.3629
   35   90   1       0.3325   0.3629
   35   92   1       0.3325   0.3629
   35   94   1       0.3325   0.3629
   35   96   1       0.3325   0.3629
   35   98   1       0.3180   0.4033
   35  100   1       0.3180   0.4033
   35  102   1       0.3275   0.3433
   35  104   1       0.3233   0.4037
   35  106   1       0.3233   0.4037
   35  108   1       0.3200   0.3629
   35  110   1       0.3180   0.4033
   35  112   1       0.3571   0.3936
   35  114   1       0.3482   0.4401
   35  116   1       0.3482   0.4401
   35  118   1       0.3400   0.2581
   35  120   1       0.1700   0.0000
   35  122   1       0.4068   0.0159
   35  124   1       0.4333   0.0115
   35  132   1       0.2713   0.1191
   35  134   1       0.2680   0.0984
   35  136   1       0.1700   0.0000
   35  138   1       0.3282   0.3551
   35  140   1       0.1700   0.0000
   35  142   1       0.3277   0.3465
   35  144   1       0.1700   0.0000
   35  146   1       0.3260   0.3521
   35  148   1       0.1700   0.0000
   35  150   1       0.3282   0.4301
   35  152   1       0.1700   0.0000
   35  154   1       0.1700   0.0000
   35  156   1       0.1700   0.0000
   35  158   1       0.3400   0.2911
   35  160   1       0.3025   0.1103
   35  162   1       0.3400   0.2581
   35  164   1       0.3180   0.4033
   35  166   1       0.3325   0.3629
   35  168   1       0.2936   0.1103
   35  170   1       0.3400   0.2581
   35  172   1       0.3000   0.1078
   35  176   1       0.3325   0.3629
   35  178   1       0.2680   0.1103
   35  180   1       0.3325   0.3629
   35  182   1       0.2234   0.1103
   37    0   1       0.1700   0.0000
   37    2   1       0.3400   0.2581
   37    4   1       0.3400   0.2581
   37    6   1       0.3400   0.2581
   37    8   1       0.3400   0.2581
   37   10   1       0.3400   0.2581
   37   12   1       0.3400   0.2581
   37   14   1       0.3400   0.2581
   37   16   1       0.3400   0.2581
   37   18   1       0.3400   0.2581
   37   20   1       0.3400   0.2581
   37   22   1       0.3400   0.2581
   37   24   1       0.3400   0.2911
   37   26   1       0.3400   0.2911
   37   28   1       0.3400   0.2911
   37   30   1       0.3400   0.2911
   37   32   1       0.3400   0.2911
   37   34   1       0.3400   0.2911
   37   36   1       0.3400   0.2911
   37   38   1       0.3400   0.2581
   37   40   1       0.3400   0.2581
   37   42   1       0.3400   0.2581
   37   44   1       0.3226   0.5968
   37   46   1       0.3259   0.2174
   37   48   1       0.2234   0.1103
   37   50   1       0.2234   0.1103
   37   52   1       0.3025   0.1103
   37   54   1       0.2936   0.1103
   37   56   1       0.2846   0.1103
   37   58   1       0.2757   0.1103
   37   60   1       0.3000   0.1078
   37   62   1       0.2955   0.1078
   37   64   1       0.2911   0.1078
   37   66   1       0.1700   0.0000
   37   68   1       0.2234   0.1103
   37   70   1       0.1700   0.0000
   37   72   1       0.2680   0.1103
   37   74   1       0.3793   0.5567
   37   76   1       0.3900   0.2783
   37   78   1       0.3364   0.0463
   37   80   1       0.6154   0.2783
   37   82   1       0.2406   0.8325
   37   84   1       0.3325   0.3629
   37   86   1       0.3325   0.3629
   37   88   1       0.3325   0.3629
   37   90   1       0.3325   0.3629
   37   92   1       0.3325   0.3629
   37   94   1       0.3325   0.3629
   37   96   1       0.3325   0.3629
   37   98   1       0.3180   0.4033
   37  100   1       0.3180   0.4033
   37  102   1       0.3275   0.3433
   37  104   1       0.3233   0.4037
   37  106   1       0.3233   0.4037
   37  108   1       0.3200   0.3629
   37  110   1       0.3180   0.4033
   37  112   1       0.3571   0.3936
   37  114   1       0.3482   0.4401
   37  116   1       0.3482   0.4401
   37  118   1       0.3400   0.2581
   37  120   1       0.1700   0.0000
   37  122   1       0.4068   0.0159
   37  124   1       0.4333   0.0115
   37  132   1       0.2713   0.1191
   37  134   1       0.2680   0.0984
   37  136   1       0.1700   0.0000
   37  138   1       0.3282   0.3551
   37  140   1       0.1700   0.0000
   37  142   1       0.3277   0.3465
   37  144   1       0.1700   0.0000
   37  146   1       0.3260   0.3521
   37  148   1       0.1700   0.0000
   37  150   1       0.3282   0.4301
   37  152   1       0.1700   0.0000
   37  154   1       0.1700   0.0000
   37  156   1       0.1700   0.0000
   37  158   1       0.3400   0.2911
   37  160   1       0.3025   0.1103
   37  162   1       0.3400   0.2581
   37  164   1       0.3180   0.4033
   37  166   1       0.3325   0.3629
   37  168   1       0.2936   0.1103
   37  170   1       0.3400   0.2581
   37  172   1       0.3000   0.1078
   37  176   1       0.3325   0.3629
   37  178   1       0.2680   0.1103
   37  180   1       0.3325   0.3629
   37  182   1       0.2234   0.1103
   39    0   1       0.1700   0.0000
   39    2   1       0.3400   0.2288
   39    4   1       0.3400   0.2288
   39    6   1       0.3400   0.2288
   39    8   1       0.3400   0.2288
   39   10   1       0.3400   0.2288
   39   12   1       0.3400   0.2288
   39   14   1       0.3400   0.2288
   39   16   1       0.3400   0.2288
   39   18   1       0.3400   0.2288
   39   20   1       0.3400   0.2288
   39   22   1       0.3400   0.2288
   39   24   1       0.3400   0.2581
   39   26   1       0.3400   0.2581
   39   28   1       0.3400   0.2581
   39   30   1       0.3400   0.2581
   39   32   1       0.3400   0.2581
   39   34   1       0.3400   0.2581
   39   36   1       0.3400   0.2581
   39   38   1       0.3400   0.2288
   39   40   1       0.3400   0.2288
   39   42   1       0.3400   0.2288
   39   44   1       0.3226   0.5291
   39   46   1       0.3259   0.1927
   39   48   1       0.2234   0.0978
   39   50   1       0.2234   0.0978
   39   52   1       0.3025   0.0978
   39   54   1       0.2936   0.0978
   39   56   1       0.2846   0.0978
   39   58   1       0.2757   0.0978
   39   60   1       0.3000   0.0956
   39   62   1       0.2955   0.0956
   39   64   1       0.2911   0.0956
   39   66   1       0.1700   0.0000
   39   68   1       0.2234   0.0978
   39   70   1       0.1700   0.0000
   39   72   1       0.2680   0.0978
   39   74   1       0.3793   0.4935
   39   76   1       0.3900   0.2468
   39   78   1       0.3364   0.0411
   39   80   1       0.6154   0.2468
   39   82   1       0.2406   0.7381
   39   84   1       0.3325   0.3218
   39   86   1       0.3325   0.3218
   39   88   1       0.3325   0.3218
   39   90   1       0.3325   0.3218
   39   92   1       0.3325   0.3218
   39   94   1       0.3325   0.3218
   39   96   1       0.3325   0.3218
   39   98   1       0.3180   0.3576
   39  100   1       0.3180   0.3576
   39  102   1       0.3275   0.3043
   39  104   1       0.3233   0.3579
   39  106   1       0.3233   0.3579
   39  108   1       0.3200   0.3218
   39  110   1       0.3180   0.3576
   39  112   1       0.3571   0.3490
   39  114   1       0.3482   0.3902
   39  116   1       0.3482   0.3902
   39  118   1       0.3400   0.2288
   39  120   1       0.1700   0.0000
   39  122   1       0.4068   0.0141
   39  124   1       0.4333   0.0102
   39  132   1       0.2713   0.1056
   39  134   1       0.2680   0.0872
   39  136   1       0.1700   0.0000
   39  138   1       0.3282   0.3148
   39  140   1       0.1700   0.0000
   39  142   1       0.3277   0.3072
   39  144   1       0.1700   0.0000
   39  146   1       0.3260   0.3121
   39  148   1       0.1700   0.0000
   39  150   1       0.3282   0.3813
   39  152   1       0.1700   0.0000
   39  154   1       0.1700   0.0000
   39  156   1       0.1700   0.0000
   39  158   1       0.3400   0.2581
   39  160   1       0.3025   0.0978
   39  162   1       0.3400   0.2288
   39  164   1       0.3180   0.3576
   39  166   1       0.3325   0.3218
   39  168   1       0.2936   0.0978
   39  170   1       0.3400   0.2288
   39  172   1       0.3000   0.0956
   39  176   1       0.3325   0.3218
   39  178   1       0.2680   0.0978
   39  180   1       0.3325   0.3218
   39  182   1       0.2234   0.0978
   41    0   1       0.1700   0.0000
   41    2   1       0.3400   0.2288
   41    4   1       0.3400   0.2288
   41    6   1       0.3400   0.2288
   41    8   1       0.3400   0.2288
   41   10   1       0.3400   0.2288
   41   12   1       0.3400   0.2288
   41   14   1       0.3400   0.2288
   41   16   1       0.3400   0.2288
   41   18   1       0.3400   0.2288
   41   20   1       0.3400   0.2288
   41   22   1       0.3400   0.2288
   41   24   1       0.3400   0.2581
   41   26   1       0.3400   0.2581
   41   28   1       0.3400   0.2581
   41   30   1       0.3400   0.2581
   41   32   1       0.3400   0.2581
   41   34   1       0.3400   0.2581
   41   36   1       0.3400   0.2581
   41   38   1       0.3400   0.2288
   41   40   1       0.3400   0.2288
   41   42   1       0.3400   0.2288
   41   44   1       0.3226   0.5291
   41   46   1       0.3259   0.1927
   41   48   1       0.2234   0.0978
   41   50   1       0.2234   0.0978
   41   52   1       0.3025   0.0978
   41   54   1       0.2936   0.0978
   41   56   1       0.2846   0.0978
   41   58   1       0.2757   0.0978
   41   60   1       0.3000   0.0956
   41   62   1       0.2955   0.0956
   41   64   1       0.2911   0.0956
   41   66   1       0.1700   0.0000
   41   68   1       0.2234   0.0978
   41   70   1       0.1700   0.0000
   41   72   1       0.2680   0.0978
   41   74   1       0.3793   0.4935
   41   76   1       0.3900   0.2468
   41   78   1       0.3364   0.0411
   41   80   1       0.6154   0.2468
   41   82   1       0.2406   0.7381
   41   84   1       0.3325   0.3218
   41   86   1       0.3325   0.3218
   41   88   1       0.3325   0.3218
   41   90   1       0.3325   0.3218
   41   92   1       0.3325   0.3218
   41   94   1       0.3325   0.3218
   41   96   1       0.3325   0.3218
   41   98   1       0.3180   0.3576
   41  100   1       0.3180   0.3576
   41  102   1       0.3275   0.3043
   41  104   1       0.3233   0.3579
   41  106   1       0.3233   0.3579
   41  108   1       0.3200   0.3218
   41  110   1       0.3180   0.3576
   41  112   1       0.3571   0.3490
   41  114   1       0.3482   0.3902
   41  116   1       0.3482   0.3902
   41  118   1       0.3400   0.2288
   41  120   1       0.1700   0.0000
   41  122   1       0.4068   0.0141
   41  124   1       0.4333   0.0102
   41  132   1       0.2713   0.1056
   41  134   1       0.2680   0.0872
   41  136   1       0.1700   0.0000
   41  138   1       0.3282   0.3148
   41  140   1       0.1700   0.0000
   41  142   1       0.3277   0.3072
   41  144   1       0.1700   0.0000
   41  146   1       0.3260   0.3121
   41  148   1       0.1700   0.0000
   41  150   1       0.3282   0.3813
   41  152   1       0.1700   0.0000
   41  154   1       0.1700   0.0000
   41  156   1       0.1700   0.0000
   41  158   1       0.3400   0.2581
   41  160   1       0.3025   0.0978
   41  162   1       0.3400   0.2288
   41  164   1       0.3180   0.3576
   41  166   1       0.3325   0.3218
   41  168   1       0.2936   0.0978
   41  170   1       0.3400   0.2288
   41  172   1       0.3000   0.0956
   41  176   1       0.3325   0.3218
   41  178   1       0.2680   0.0978
   41  180   1       0.3325   0.3218
   41  182   1       0.2234   0.0978
   43    0   1       0.1700   0.0000
   43    2   1       0.3400   0.2288
   43    4   1       0.3400   0.2288
   43    6   1       0.3400   0.2288
   43    8   1       0.3400   0.2288
   43   10   1       0.3400   0.2288
   43   12   1       0.3400   0.2288
   43   14   1       0.3400   0.2288
   43   16   1       0.3400   0.2288
   43   18   1       0.3400   0.2288
   43   20   1       0.3400   0.2288
   43   22   1       0.3400   0.2288
   43   24   1       0.3400   0.2581
   43   26   1       0.3400   0.2581
   43   28   1       0.3400   0.2581
   43   30   1       0.3400   0.2581
   43   32   1       0.3400   0.2581
   43   34   1       0.3400   0.2581
   43   36   1       0.3400   0.2581
   43   38   1       0.3400   0.2288
   43   40   1       0.3400   0.2288
   43   42   1       0.3400   0.2288
   43   44   1       0.3226   0.5291
   43   46   1       0.3259   0.1927
   43   48   1       0.2234   0.0978
   43   50   1       0.2234   0.0978
   43   52   1       0.3025   0.0978
   43   54   1       0.2936   0.0978
   43   56   1       0.2846   0.0978
   43   58   1       0.2757   0.0978
   43   60   1       0.3000   0.0956
   43   62   1       0.2955   0.0956
   43   64   1       0.2911   0.0956
   43   66   1       0.1700   0.0000
   43   68   1       0.2234   0.0978
   43   70   1       0.1700   0.0000
   43   72   1       0.2680   0.0978
   43   74   1       0.3793   0.4935
   43   76   1       0.3900   0.2468
   43   78   1       0.3364   0.0411
   43   80   1       0.6154   0.2468
   43   82   1       0.2406   0.7381
   43   84   1       0.3325   0.3218
   43   86   1       0.3325   0.3218
   43   88   1       0.3325   0.3218
   43   90   1       0.3325   0.3218
   43   92   1       0.3325   0.3218
   43   94   1       0.3325   0.3218
   43   96   1       0.3325   0.3218
   43   98   1       0.3180   0.3576
   43  100   1       0.3180   0.3576
   43  102   1       0.3275   0.3043
   43  104   1       0.3233   0.3579
   43  106   1       0.3233   0.3579
   43  108   1       0.3200   0.3218
   43  110   1       0.3180   0.3576
   43  112   1       0.3571   0.3490
   43  114   1       0.3482   0.3902
   43  116   1       0.3482   0.3902
   43  118   1       0.3400   0.2288
   43  120   1       0.1700   0.0000
   43  122   1       0.4068   0.0141
   43  124   1       0.4333   0.0102
   43  132   1       0.2713   0.1056
   43  134   1       0.2680   0.0872
   43  136   1       0.1700   0.0000
   43  138   1       0.3282   0.3148
   43  140   1       0.1700   0.0000
   43  142   1       0.3277   0.3072
   43  144   1       0.1700   0.0000
   43  146   1       0.3260   0.3121
   43  148   1       0.1700   0.0000
   43  150   1       0.3282   0.3813
   43  152   1       0.1700   0.0000
   43  154   1       0.1700   0.0000
   43  156   1       0.1700   0.0000
   43  158   1       0.3400   0.2581
   43  160   1       0.3025   0.0978
   43  162   1       0.3400   0.2288
   43  164   1       0.3180   0.3576
   43  166   1       0.3325   0.3218
   43  168   1       0.2936   0.0978
   43  170   1       0.3400   0.2288
   43  172   1       0.3000   0.0956
   43  176   1       0.3325   0.3218
   43  178   1       0.2680   0.0978
   43  180   1       0.3325   0.3218
   43  182   1       0.2234   0.0978
   45    0   1       0.1526   0.0000
   45    2   1       0.3226   0.5291
   45    4   1       0.3226   0.5291
   45    6   1       0.3226   0.5291
   45    8   1       0.3226   0.5291
   45   10   1       0.3226   0.5291
   45   12   1       0.3226   0.5291
   45   14   1       0.3226   0.5291
   45   16   1       0.3226   0.5291
   45   18   1       0.3226   0.5291
   45   20   1       0.3226   0.5291
   45   22   1       0.3226   0.5291
   45   24   1       0.3226   0.5968
   45   26   1       0.3226   0.5968
   45   28   1       0.3226   0.5968
   45   30   1       0.3226   0.5968
   45   32   1       0.3226   0.5968
   45   34   1       0.3226   0.5968
   45   36   1       0.3226   0.5968
   45   38   1       0.3226   0.5291
   45   40   1       0.3226   0.5291
   45   42   1       0.3226   0.5291
   45   44   1       0.3052   1.2235
   45   46   1       0.3085   0.4457
   45   48   1       0.2061   0.2261
   45   50   1       0.2061   0.2261
   45   52   1       0.2851   0.2261
   45   54   1       0.2762   0.2261
   45   56   1       0.2673   0.2261
   45   58   1       0.2584   0.2261
   45   60   1       0.2826   0.2210
   45   62   1       0.2781   0.2210
   45   64   1       0.2737   0.2210
   45   66   1       0.1526   0.0000
   45   68   1       0.2061   0.2261
   45   70   1       0.1526   0.0000
   45   72   1       0.2506   0.2261
   45   74   1       0.3620   1.1412
   45   76   1       0.3727   0.5706
   45   78   1       0.3190   0.0950
   45   80   1       0.5981   0.5706
   45   82   1       0.2232   1.7067
   45   84   1       0.3151   0.7440
   45   86   1       0.3151   0.7440
   45   88   1       0.3151   0.7440
   45   90   1       0.3151   0.7440
   45   92   1       0.3151   0.7440
   45   94   1       0.3151   0.7440
   45   96   1       0.3151   0.7440
   45   98   1       0.3006   0.8269
   45  100   1       0.3006   0.8269
   45  102   1       0.3102   0.7037
   45  104   1       0.3059   0.8277
   45  106   1       0.3059   0.8277
   45  108   1       0.3026   0.7440
   45  110   1       0.3006   0.8269
   45  112   1       0.3397   0.8069
   45  114   1       0.3308   0.9022
   45  116   1       0.3308   0.9022
   45  118   1       0.3226   0.5291
   45  120   1       0.1526   0.0000
   45  122   1       0.3894   0.0327
   45  124   1       0.4160   0.0235
   45  132   1       0.2539   0.2441
   45  134   1       0.2506   0.2017
   45  136   1       0.1526   0.0000
   45  138   1       0.3108   0.7279
   45  140   1       0.1526   0.0000
   45  142   1       0.3103   0.7104
   45  144   1       0.1526   0.0000
   45  146   1       0.3086   0.7218
   45  148   1       0.1526   0.0000
   45  150   1       0.3109   0.8817
   45  152   1       0.1526   0.0000
   45  154   1       0.1526   0.0000
   45  156   1       0.1526   0.0000
   45  158   1       0.3226   0.5968
   45  160   1       0.2851   0.2261
   45  162   1       0.3226   0.5291
   45  164   1       0.3006   0.8269
   45  166   1       0.3151   0.7440
   45  168   1       0.2762   0.2261
   45  170   1       0.3226   0.5291
   45  172   1       0.2826   0.2210
   45  176   1       0.3151   0.7440
   45  178   1       0.2506   0.2261
   45  180   1       0.3151   0.7440
   45  182   1       0.2061   0.2261
   47    0   1       0.1559   0.0000
   47    2   1       0.3259   0.1927
   47    4   1       0.3259   0.1927
   47    6   1       0.3259   0.1927
   47    8   1       0.3259   0.1927
   47   10   1       0.3259   0.1927
   47   12   1       0.3259   0.1927
   47   14   1       0.3259   0.1927
   47   16   1       0.3259   0.1927
   47   18   1       0.3259   0.1927
   47   20   1       0.3259   0.1927
   47   22   1       0.3259   0.1927
   47   24   1       0.3259   0.2174
   47   26   1       0.3259   0.2174
   47   28   1       0.3259   0.2174
   47   30   1       0.3259   0.2174
   47   32   1       0.3259   0.2174
   47   34   1       0.3259   0.2174
   47   36   1       0.3259   0.2174
   47   38   1       0.3259   0.1927
   47   40   1       0.3259   0.1927
   47   42   1       0.3259   0.1927
   47   44   1       0.3085   0.4456
   47   46   1       0.3118   0.1623
   47   48   1       0.2094   0.0823
   47   50   1       0.2094   0.0823
   47   52   1       0.2884   0.0823
   47   54   1       0.2795   0.0823
   47   56   1       0.2706   0.0823
   47   58   1       0.2617   0.0823
   47   60   1       0.2859   0.0805
   47   62   1       0.2814   0.0805
   47   64   1       0.2770   0.0805
   47   66   1       0.1559   0.0000
   47   68   1       0.2094   0.0823
   47   70   1       0.1559   0.0000
   47   72   1       0.2539   0.0823
   47   74   1       0.3653   0.4157
   47   76   1       0.3760   0.2078
   47   78   1       0.3223   0.0346
   47   80   1       0.6014   0.2078
   47   82   1       0.2265   0.6217
   47   84   1       0.3184   0.2710
   47   86   1       0.3184   0.2710
   47   88   1       0.3184   0.2710
   47   90   1       0.3184   0.2710
   47   92   1       0.3184   0.2710
   47   94   1       0.3184   0.2710
   47   96   1       0.3184   0.2710
   47   98   1       0.3039   0.3012
   47  100   1       0.3039   0.3012
   47  102   1       0.3134   0.2563
   47  104   1       0.3092   0.3015
   47  106   1       0.3092   0.3015
   47  108   1       0.3059   0.2710
   47  110   1       0.3039   0.3012
   47  112   1       0.3430   0.2939
   47  114   1       0.3341   0.3286
   47  116   1       0.3341   0.3286
   47  118   1       0.3259   0.1927
   47  120   1       0.1559   0.0000
   47  122   1       0.3927   0.0119
   47  124   1       0.4193   0.0086
   47  132   1       0.2572   0.0889
   47  134   1       0.2539   0.0735
   47  136   1       0.1559   0.0000
   47  138   1       0.3141   0.2651
   47  140   1       0.1559   0.0000
   47  142   1       0.3136   0.2587
   47  144   1       0.1559   0.0000
   47  146   1       0.3119   0.2629
   47  148   1       0.1559   0.0000
   47  150   1       0.3142   0.3211
   47  152   1       0.1559   0.0000
   47  154   1       0.1559   0.0000
   47  156   1       0.1559   0.0000
   47  158   1       0.3259   0.2174
   47  160   1       0.2884   0.0823
   47  162   1       0.3259   0.1927
   47  164   1       0.3039   0.3012
   47  166   1       0.3184   0.2710
   47  168   1       0.2795   0.0823
   47  170   1       0.3259   0.1927
   47  172   1       0.2859   0.0805
   47  176   1       0.3184   0.2710
   47  178   1       0.2539   0.0823
   47  180   1       0.3184   0.2710
   47  182   1       0.2094   0.0823
   49    0   1       0.0535   0.0000
   49    2   1       0.2234   0.0978
   49    4   1       0.2234   0.0978
   49    6   1       0.2234   0.0978
   49    8   1       0.2234   0.0978
   49   10   1       0.2234   0.0978
   49   12   1       0.2234   0.0978
   49   14   1       0.2234   0.0978
   49   16   1       0.2234   0.0978
   49   18   1       0.2234   0.0978
   49   20   1       0.2234   0.0978
   49   22   1       0.2234   0.0978
   49   24   1       0.2234   0.1103
   49   26   1       0.2234   0.1103
   49   28   1       0.2234   0.1103
   49   30   1       0.2234   0.1103
   49   32   1       0.2234   0.1103
   49   34   1       0.2234   0.1103
   49   36   1       0.2234   0.1103
   49   38   1       0.2234   0.0978
   49   40   1       0.2234   0.0978
   49   42   1       0.2234   0.0978
   49   44   1       0.2061   0.2261
   49   46   1       0.2094   0.0824
   49   48   1       0.1069   0.0418
   49   50   1       0.1069   0.0418
   49   52   1       0.1859   0.0418
   49   54   1       0.1770   0.0418
   49   56   1       0.1681   0.0418
   49   58   1       0.1592   0.0418
   49   60   1       0.1834   0.0408
   49   62   1       0.1790   0.0408
   49   64   1       0.1745   0.0408
   49   66   1       0.0535   0.0000
   49   68   1       0.1069   0.0418
   49   70   1       0.0535   0.0000
   49   72   1       0.1515   0.0418
   49   74   1       0.2628   0.2109
   49   76   1       0.2735   0.1054
   49   78   1       0.2199   0.0175
   49   80   1       0.4989   0.1054
   49   82   1       0.1241   0.3154
   49   84   1       0.2160   0.1375
   49   86   1       0.2160   0.1375
   49   88   1       0.2160   0.1375
   49   90   1       0.2160   0.1375
   49   92   1       0.2160   0.1375
   49   94   1       0.2160   0.1375
   49   96   1       0.2160   0.1375
   49   98   1       0.2014   0.1528
   49  100   1       0.2014   0.1528
   49  102   1       0.2110   0.1300
   49  104   1       0.2068   0.1529
   49  106   1       0.2068   0.1529
   49  108   1       0.2035   0.1375
   49  110   1       0.2014   0.1528
   49  112   1       0.2405   0.1491
   49  114   1       0.2316   0.1667
   49  116   1       0.2316   0.1667
   49  118   1       0.2234   0.0978
   49  120   1       0.0535   0.0000
   49  122   1       0.2903   0.0060
   49  124   1       0.3168   0.0043
   49  132   1       0.1547   0.0451
   49  134   1       0.1515   0.0373
   49  136   1       0.0535   0.0000
   49  138   1       0.2117   0.1345
   49  140   1       0.0535   0.0000
   49  142   1       0.2111   0.1313
   49  144   1       0.0535   0.0000
   49  146   1       0.2095   0.1334
   49  148   1       0.0535   0.0000
   49  150   1       0.2117   0.1629
   49  152   1       0.0535   0.0000
   49  154   1       0.0535   0.0000
   49  156   1       0.0535   0.0000
   49  158   1       0.2234   0.1103
   49  160   1       0.1859   0.0418
   49  162   1       0.2234   0.0978
   49  164   1       0.2014   0.1528
   49  166   1       0.2160   0.1375
   49  168   1       0.1770   0.0418
   49  170   1       0.2234   0.0978
   49  172   1       0.1834   0.0408
   49  176   1       0.2160   0.1375
   49  178   1       0.1515   0.0418
   49  180   1       0.2160   0.1375
   49  182   1       0.1069   0.0418
   51    0   1       0.0535   0.0000
   51    2   1       0.2234   0.0978
   51    4   1       0.2234   0.0978
   51    6   1       0.2234   0.0978
   51    8   1       0.2234   0.0978
   51   10   1       0.2234   0.0978
   51   12   1       0.2234   0.0978
   51   14   1       0.2234   0.0978
   51   16   1       0.2234   0.0978
   51   18   1       0.2234   0.0978
   51   20   1       0.2234   0.0978
   51   22   1       0.2234   0.0978
   51   24   1       0.2234   0.1103
   51   26   1       0.2234   0.1103
   51   28   1       0.2234   0.1103
   51   30   1       0.2234   0.1103
   51   32   1       0.2234   0.1103
   51   34   1       0.2234   0.1103
   51   36   1       0.2234   0.1103
   51   38   1       0.2234   0.0978
   51   40   1       0.2234   0.0978
   51   42   1       0.2234   0.0978
   51   44   1       0.2061   0.2261
   51   46   1       0.2094   0.0824
   51   48   1       0.1069   0.0418
   51   50   1       0.1069   0.0418
   51   52   1       0.1859   0.0418
   51   54   1       0.1770   0.0418
   51   56   1       0.1681   0.0418
   51   58   1       0.1592   0.0418
   51   60   1       0.1834   0.0408
   51   62   1       0.1790   0.0408
   51   64   1       0.1745   0.0408
   51   66   1       0.0535   0.0000
   51   68   1       0.1069   0.0418
   51   70   1       0.0535   0.0000
   51   72   1       0.1515   0.0418
   51   74   1       0.2628   0.2109
   51   76   1       0.2735   0.1054
   51   78   1       0.2199   0.0175
   51   80   1       0.4989   0.1054
   51   82   1       0.1241   0.3154
   51   84   1       0.2160   0.1375
   51   86   1       0.2160   0.1375
   51   88   1       0.2160   0.1375
   51   90   1       0.2160   0.1375
   51   92   1       0.2160   0.1375
   51   94   1       0.2160   0.1375
   51   96   1       0.2160   0.1375
   51   98   1       0.2014   0.1528
   51  100   1       0.2014   0.1528
   51  102   1       0.2110   0.1300
   51  104   1       0.2068   0.1529
   51  106   1       0.2068   0.1529
   51  108   1       0.2035   0.1375
   51  110   1       0.2014   0.1528
   51  112   1       0.2405   0.1491
   51  114   1       0.2316   0.1667
   51  116   1       0.2316   0.1667
   51  118   1       0.2234   0.0978
   51  120   1       0.0535   0.0000
   51  122   1       0.2903   0.0060
   51  124   1       0.3168   0.0043
   51  132   1       0.1547   0.0451
   51  134   1       0.1515   0.0373
   51  136   1       0.0535   0.0000
   51  138   1       0.2117   0.1345
   51  140   1       0.0535   0.0000
   51  142   1       0.2111   0.1313
   51  144   1       0.0535   0.0000
   51  146   1       0.2095   0.1334
   51  148   1       0.0535   0.0000
   51  150   1       0.2117   0.1629
   51  152   1       0.0535   0.0000
   51  154   1       0.0535   0.0000
   51  156   1       0.0535   0.0000
   51  158   1       0.2234   0.1103
   51  160   1       0.1859   0.0418
   51  162   1       0.2234   0.0978
   51  164   1       0.2014   0.1528
   51  166   1       0.2160   0.1375
   51  168   1       0.1770   0.0418
   51  170   1       0.2234   0.0978
   51  172   1       0.1834   0.0408
   51  176   1       0.2160   0.1375
   51  178   1       0.1515   0.0418
   51  180   1       0.2160   0.1375
   51  182   1       0.1069   0.0418
   53    0   1       0.1325   0.0000
   53    2   1       0.3025   0.0978
   53    4   1       0.3025   0.0978
   53    6   1       0.3025   0.0978
   53    8   1       0.3025   0.0978
   53   10   1       0.3025   0.0978
   53   12   1       0.3025   0.0978
   53   14   1       0.3025   0.0978
   53   16   1       0.3025   0.0978
   53   18   1       0.3025   0.0978
   53   20   1       0.3025   0.0978
   53   22   1       0.3025   0.0978
   53   24   1       0.3025   0.1103
   53   26   1       0.3025   0.1103
   53   28   1       0.3025   0.1103
   53   30   1       0.3025   0.1103
   53   32   1       0.3025   0.1103
   53   34   1       0.3025   0.1103
   53   36   1       0.3025   0.1103
   53   38   1       0.3025   0.0978
   53   40   1       0.3025   0.0978
   53   42   1       0.3025   0.0978
   53   44   1       0.2851   0.2261
   53   46   1       0.2884   0.0824
   53   48   1       0.1859   0.0418
   53   50   1       0.1859   0.0418
   53   52   1       0.2650   0.0418
   53   54   1       0.2560   0.0418
   53   56   1       0.2471   0.0418
   53   58   1       0.2382   0.0418
   53   60   1       0.2625   0.0408
   53   62   1       0.2580   0.0408
   53   64   1       0.2535   0.0408
   53   66   1       0.1325   0.0000
   53   68   1       0.1859   0.0418
   53   70   1       0.1325   0.0000
   53   72   1       0.2305   0.0418
   53   74   1       0.3418   0.2109
   53   76   1       0.3525   0.1054
   53   78   1       0.2989   0.0175
   53   80   1       0.5779   0.1054
   53   82   1       0.2031   0.3154
   53   84   1       0.2950   0.1375
   53   86   1       0.2950   0.1375
   53   88   1       0.2950   0.1375
   53   90   1       0.2950   0.1375
   53   92   1       0.2950   0.1375
   53   94   1       0.2950   0.1375
   53   96   1       0.2950   0.1375
   53   98   1       0.2805   0.1528
   53  100   1       0.2805   0.1528
   53  102   1       0.2900   0.1300
   53  104   1       0.2858   0.1529
   53  106   1       0.2858   0.1529
   53  108   1       0.2825   0.1375
   53  110   1       0.2805   0.1528
   53  112   1       0.3196   0.1491
   53  114   1       0.3107   0.1667
   53  116   1       0.3107   0.1667
   53  118   1       0.3025   0.0978
   53  120   1       0.1325   0.0000
   53  122   1       0.3693   0.0060
   53  124   1       0.3958   0.0043
   53  132   1       0.2338   0.0451
   53  134   1       0.2305   0.0373
   53  136   1       0.1325   0.0000
   53  138   1       0.2907   0.1345
   53  140   1       0.1325   0.0000
   53  142   1       0.2902   0.1313
   53  144   1       0.1325   0.0000
   53  146   1       0.2885   0.1334
   53  148   1       0.1325   0.0000
   53  150   1       0.2907   0.1629
   53  152   1       0.1325   0.0000
   53  154   1       0.1325   0.0000
   53  156   1       0.1325   0.0000
   53  158   1       0.3025   0.1103
   53  160   1       0.2650   0.0418
   53  162   1       0.3025   0.0978
   53  164   1       0.2805   0.1528
   53  166   1       0.2950   0.1375
   53  168   1       0.2560   0.0418
   53  170   1       0.3025   0.0978
   53  172   1       0.2625   0.0408
   53  176   1       0.2950   0.1375
   53  178   1       0.2305   0.0418
   53  180   1       0.2950   0.1375
   53  182   1       0.1859   0.0418
   55    0   1       0.1236   0.0000
   55    2   1       0.2936   0.0978
   55    4   1       0.2936   0.0978
   55    6   1       0.2936   0.0978
   55    8   1       0.2936   0.0978
   55   10   1       0.2936   0.0978
   55   12   1       0.2936   0.0978
   55   14   1       0.2936   0.0978
   55   16   1       0.2936   0.0978
   55   18   1       0.2936   0.0978
   55   20   1       0.2936   0.0978
   55   22   1       0.2936   0.0978
   55   24   1       0.2936   0.1103
   55   26   1       0.2936   0.1103
   55   28   1       0.2936   0.1103
   55   30   1       0.2936   0.1103
   55   32   1       0.2936   0.1103
   55   34   1       0.2936   0.1103
   55   36   1       0.2936   0.1103
   55   38   1       0.2936   0.0978
   55   40   1       0.2936   0.0978
   55   42   1       0.2936   0.0978
   55   44   1       0.2762   0.2261
   55   46   1       0.2795   0.0824
   55   48   1       0.1770   0.0418
   55   50   1       0.1770   0.0418
   55   52   1       0.2560   0.0418
   55   54   1       0.2471   0.0418
   55   56   1       0.2382   0.0418
   55   58   1       0.2293   0.0418
   55   60   1       0.2535   0.0408
   55   62   1       0.2491   0.0408
   55   64   1       0.2446   0.0408
   55   66   1       0.1236   0.0000
   55   68   1       0.1770   0.0418
   55   70   1       0.1236   0.0000
   55   72   1       0.2216   0.0418
   55   74   1       0.3329   0.2109
   55   76   1       0.3436   0.1054
   55   78   1       0.2900   0.0175
   55   80   1       0.5690   0.1054
   55   82   1       0.1942   0.3154
   55   84   1       0.2861   0.1375
   55   86   1       0.2861   0.1375
   55   88   1       0.2861   0.1375
   55   90   1       0.2861   0.1375
   55   92   1       0.2861   0.1375
   55   94   1       0.2861   0.1375
   55   96   1       0.2861   0.1375
   55   98   1       0.2716   0.1528
   55  100   1       0.2716   0.1528
   55  102   1       0.2811   0.1300
   55  104   1       0.2769   0.1529
   55  106   1       0.2769   0.1529
   55  108   1       0.2736   0.1375
   55  110   1       0.2716   0.1528
   55  112   1       0.3107   0.1491
   55  114   1       0.3017   0.1667
   55  116   1       0.3017   0.1667
   55  118   1       0.2936   0.0978
   55  120   1       0.1236   0.0000
   55  122   1       0.3604   0.0060
   55  124   1       0.3869   0.0043
   55  132   1       0.2249   0.0451
   55  134   1       0.2216   0.0373
   55  136   1       0.1236   0.0000
   55  138   1       0.2818   0.1345
   55  140   1       0.1236   0.0000
   55  142   1       0.2812   0.1313
   55  144   1       0.1236   0.0000
   55  146   1       0.2796   0.1334
   55  148   1       0.1236   0.0000
   55  150   1       0.2818   0.1629
   55  152   1       0.1236   0.0000
   55  154   1       0.1236   0.0000
   55  156   1       0.1236   0.0000
   55  158   1       0.2936   0.1103
   55  160   1       0.2560   0.0418
   55  162   1       0.2936   0.0978
   55  164   1       0.2716   0.1528
   55  166   1       0.2861   0.1375
   55  168   1       0.2471   0.0418
   55  170   1       0.2936   0.0978
   55  172   1       0.2535   0.0408
   55  176   1       0.2861   0.1375
   55  178   1       0.2216   0.0418
   55  180   1       0.2861   0.1375
   55  182   1       0.1770   0.0418
   57    0   1       0.1147   0.0000
   57    2   1       0.2846   0.0978
   57    4   1       0.2846   0.0978
   57    6   1       0.2846   0.0978
   57    8   1       0.2846   0.0978
   57   10   1       0.2846   0.0978
   57   12   1       0.2846   0.0978
   57   14   1       0.2846   0.0978
   57   16   1       0.2846   0.0978
   57   18   1       0.2846   0.0978
   57   20   1       0.2846   0.0978
   57   22   1       0.2846   0.0978
   57   24   1       0.2846   0.1103
   57   26   1       0.2846   0.1103
   57   28   1       0.2846   0.1103
   57   30   1       0.2846   0.1103
   57   32   1       0.2846   0.1103
   57   34   1       0.2846   0.1103
   57   36   1       0.2846   0.1103
   57   38   1       0.2846   0.0978
   57   40   1       0.2846   0.0978
   57   42   1       0.2846   0.0978
   57   44   1       0.2673   0.2261
   57   46   1       0.2706   0.0824
   57   48   1       0.1681   0.0418
   57   50   1       0.1681   0.0418
   57   52   1       0.2471   0.0418
   57   54   1       0.2382   0.0418
   57   56   1       0.2293   0.0418
   57   58   1       0.2204   0.0418
   57   60   1       0.2446   0.0408
   57   62   1       0.2402   0.0408
   57   64   1       0.2357   0.0408
   57   66   1       0.1147   0.0000
   57   68   1       0.1681   0.0418
   57   70   1       0.1147   0.0000
   57   72   1       0.2127   0.0418
   57   74   1       0.3240   0.2109
   57   76   1       0.3347   0.1054
   57   78   1       0.2811   0.0175
   57   80   1       0.5601   0.1054
   57   82   1       0.1853   0.3154
   57   84   1       0.2772   0.1375
   57   86   1       0.2772   0.1375
   57   88   1       0.2772   0.1375
   57   90   1       0.2772   0.1375
   57   92   1       0.2772   0.1375
   57   94   1       0.2772   0.1375
   57   96   1       0.2772   0.1375
   57   98   1       0.2627   0.1528
   57  100   1       0.2627   0.1528
   57  102   1       0.2722   0.1300
   57  104   1       0.2680   0.1529
   57  106   1       0.2680   0.1529
   57  108   1       0.2647   0.1375
   57  110   1       0.2627   0.1528
   57  112   1       0.3017   0.1491
   57  114   1       0.2928   0.1667
   57  116   1       0.2928   0.1667
   57  118   1       0.2846   0.0978
   57  120   1       0.1147   0.0000
   57  122   1       0.3515   0.0060
   57  124   1       0.3780   0.0043
   57  132   1       0.2160   0.0451
   57  134   1       0.2127   0.0373
   57  136   1       0.1147   0.0000
   57  138   1       0.2729   0.1345
   57  140   1       0.1147   0.0000
   57  142   1       0.2723   0.1313
   57  144   1       0.1147   0.0000
   57  146   1       0.2707   0.1334
   57  148   1       0.1147   0.0000
   57  150   1       0.2729   0.1629
   57  152   1       0.1147   0.0000
   57  154   1       0.1147   0.0000
   57  156   1       0.1147   0.0000
   57  158   1       0.2846   0.1103
   57  160   1       0.2471   0.0418
   57  162   1       0.2846   0.0978
   57  164   1       0.2627   0.1528
   57  166   1       0.2772   0.1375
   57  168   1       0.2382   0.0418
   57  170   1       0.2846   0.0978
   57  172   1       0.2446   0.0408
   57  176   1       0.2772   0.1375
   57  178   1       0.2127   0.0418
   57  180   1       0.2772   0.1375
   57  182   1       0.1681   0.0418
   59    0   1       0.1057   0.0000
   59    2   1       0.2757   0.0978
   59    4   1       0.2757   0.0978
   59    6   1       0.2757   0.0978
   59    8   1       0.2757   0.0978
   59   10   1       0.2757   0.0978
   59   12   1       0.2757   0.0978
   59   14   1       0.2757   0.0978
   59   16   1       0.2757   0.0978
   59   18   1       0.2757   0.0978
   59   20   1       0.2757   0.0978
   59   22   1       0.2757   0.0978
   59   24   1       0.2757   0.1103
   59   26   1       0.2757   0.1103
   59   28   1       0.2757   0.1103
   59   30   1       0.2757   0.1103
   59   32   1       0.2757   0.1103
   59   34   1       0.2757   0.1103
   59   36   1       0.2757   0.1103
   59   38   1       0.2757   0.0978
   59   40   1       0.2757   0.0978
   59   42   1       0.2757   0.0978
   59   44   1       0.2584   0.2261
   59   46   1       0.2617   0.0824
   59   48   1       0.1592   0.0418
   59   50   1       0.1592   0.0418
   59   52   1       0.2382   0.0418
   59   54   1       0.2293   0.0418
   59   56   1       0.2204   0.0418
   59   58   1       0.2115   0.0418
   59   60   1       0.2357   0.0408
   59   62   1       0.2313   0.0408
   59   64   1       0.2268   0.0408
   59   66   1       0.1057   0.0000
   59   68   1       0.1592   0.0418
   59   70   1       0.1057   0.0000
   59   72   1       0.2037   0.0418
   59   74   1       0.3151   0.2109
   59   76   1       0.3258   0.1054
   59   78   1       0.2722   0.0175
   59   80   1       0.5512   0.1054
   59   82   1       0.1764   0.3154
   59   84   1       0.2682   0.1375
   59   86   1       0.2682   0.1375
   59   88   1       0.2682   0.1375
   59   90   1       0.2682   0.1375
   59   92   1       0.2682   0.1375
   59   94   1       0.2682   0.1375
   59   96   1       0.2682   0.1375
   59   98   1       0.2537   0.1528
   59  100   1       0.2537   0.1528
   59  102   1       0.2633   0.1300
   59  104   1       0.2591   0.1529
   59  106   1       0.2591   0.1529
   59  108   1       0.2558   0.1375
   59  110   1       0.2537   0.1528
   59  112   1       0.2928   0.1491
   59  114   1       0.2839   0.1667
   59  116   1       0.2839   0.1667
   59  118   1       0.2757   0.0978
   59  120   1       0.1057   0.0000
   59  122   1       0.3426   0.0060
   59  124   1       0.3691   0.0043
   59  132   1       0.2070   0.0451
   59  134   1       0.2037   0.0373
   59  136   1       0.1057   0.0000
   59  138   1       0.2640   0.1345
   59  140   1       0.1057   0.0000
   59  142   1       0.2634   0.1313
   59  144   1       0.1057   0.0000
   59  146   1       0.2617   0.1334
   59  148   1       0.1057   0.0000
   59  150   1       0.2640   0.1629
   59  152   1       0.1057   0.0000
   59  154   1       0.1057   0.0000
   59  156   1       0.1057   0.0000
   59  158   1       0.2757   0.1103
   59  160   1       0.2382   0.0418
   59  162   1       0.2757   0.0978
   59  164   1       0.2537   0.1528
   59  166   1       0.2682   0.1375
   59  168   1       0.2293   0.0418
   59  170   1       0.2757   0.0978
   59  172   1       0.2357   0.0408
   59  176   1       0.2682   0.1375
   59  178   1       0.2037   0.0418
   59  180   1       0.2682   0.1375
   59  182   1       0.1592   0.0418
   61    0   1       0.1300   0.0000
   61    2   1       0.3000   0.0956
   61    4   1       0.3000   0.0956
   61    6   1       0.3000   0.0956
   61    8   1       0.3000   0.0956
   61   10   1       0.3000   0.0956
   61   12   1       0.3000   0.0956
   61   14   1       0.3000   0.0956
   61   16   1       0.3000   0.0956
   61   18   1       0.3000   0.0956
   61   20   1       0.3000   0.0956
   61   22   1       0.3000   0.0956
   61   24   1       0.3000   0.1078
   61   26   1       0.3000   0.1078
   61   28   1       0.3000   0.1078
   61   30   1       0.3000   0.1078
   61   32   1       0.3000   0.1078
   61   34   1       0.3000   0.1078
   61   36   1       0.3000   0.1078
   61   38   1       0.3000   0.0956
   61   40   1       0.3000   0.0956
   61   42   1       0.3000   0.0956
   61   44   1       0.2826   0.2210
   61   46   1       0.2859   0.0805
   61   48   1       0.1834   0.0408
   61   50   1       0.1834   0.0408
   61   52   1       0.2625   0.0408
   61   54   1       0.2535   0.0408
   61   56   1       0.2446   0.0408
   61   58   1       0.2357   0.0408
   61   60   1       0.2600   0.0399
   61   62   1       0.2555   0.0399
   61   64   1       0.2511   0.0399
   61   66   1       0.1300   0.0000
   61   68   1       0.1834   0.0408
   61   70   1       0.1300   0.0000
   61   72   1       0.2280   0.0408
   61   74   1       0.3393   0.2061
   61   76   1       0.3500   0.1031
   61   78   1       0.2964   0.0172
   61   80   1       0.5754   0.1031
   61   82   1       0.2006   0.3083
   61   84   1       0.2925   0.1344
   61   86   1       0.2925   0.1344
   61   88   1       0.2925   0.1344
   61   90   1       0.2925   0.1344
   61   92   1       0.2925   0.1344
   61   94   1       0.2925   0.1344
   61   96   1       0.2925   0.1344
   61   98   1       0.2780   0.1493
   61  100   1       0.2780   0.1493
   61  102   1       0.2875   0.1271
   61  104   1       0.2833   0.1495
   61  106   1       0.2833   0.1495
   61  108   1       0.2800   0.1344
   61  110   1       0.2780   0.1493
   61  112   1       0.3171   0.1458
   61  114   1       0.3082   0.1630
   61  116   1       0.3082   0.1630
   61  118   1       0.3000   0.0956
   61  120   1       0.1300   0.0000
   61  122   1       0.3668   0.0059
   61  124   1       0.3933   0.0042
   61  132   1       0.2313   0.0441
   61  134   1       0.2280   0.0364
   61  136   1       0.1300   0.0000
   61  138   1       0.2882   0.1315
   61  140   1       0.1300   0.0000
   61  142   1       0.2877   0.1283
   61  144   1       0.1300   0.0000
   61  146   1       0.2860   0.1304
   61  148   1       0.1300   0.0000
   61  150   1       0.2882   0.1592
   61  152   1       0.1300   0.0000
   61  154   1       0.1300   0.0000
   61  156   1       0.1300   0.0000
   61  158   1       0.3000   0.1078
   61  160   1       0.2625   0.0408
   61  162   1       0.3000   0.0956
   61  164   1       0.2780   0.1493
   61  166   1       0.2925   0.1344
   61  168   1       0.2535   0.0408
   61  170   1       0.3000   0.0956
   61  172   1       0.2600   0.0399
   61  176   1       0.2925   0.1344
   61  178   1       0.2280   0.0408
   61  180   1       0.2925   0.1344
   61  182   1       0.1834   0.0408
   63    0   1       0.1255   0.0000
   63    2   1       0.2955   0.0956
   63    4   1       0.2955   0.0956
   63    6   1       0.2955   0.0956
   63    8   1       0.2955   0.0956
   63   10   1       0.2955   0.0956
   63   12   1       0.2955   0.0956
   63   14   1       0.2955   0.0956
   63   16   1       0.2955   0.0956
   63   18   1       0.2955   0.0956
   63   20   1       0.2955   0.0956
   63   22   1       0.2955   0.0956
   63   24   1       0.2955   0.1078
   63   26   1       0.2955   0.1078
   63   28   1       0.2955   0.1078
   63   30   1       0.2955   0.1078
   63   32   1       0.2955   0.1078
   63   34   1       0.2955   0.1078
   63   36   1       0.2955   0.1078
   63   38   1       0.2955   0.0956
   63   40   1       0.2955   0.0956
   63   42   1       0.2955   0.0956
   63   44   1       0.2781   0.2210
   63   46   1       0.2814   0.0805
   63   48   1       0.1790   0.0408
   63   50   1       0.1790   0.0408
   63   52   1       0.2580   0.0408
   63   54   1       0.2491   0.0408
   63   56   1       0.2402   0.0408
   63   58   1       0.2313   0.0408
   63   60   1       0.2555   0.0399
   63   62   1       0.2511   0.0399
   63   64   1       0.2466   0.0399
   63   66   1       0.1255   0.0000
   63   68   1       0.1790   0.0408
   63   70   1       0.1255   0.0000
   63   72   1       0.2235   0.0408
   63   74   1       0.3349   0.2061
   63   76   1       0.3456   0.1031
   63   78   1       0.2919   0.0172
   63   80   1       0.5710   0.1031
   63   82   1       0.1961   0.3083
   63   84   1       0.2880   0.1344
   63   86   1       0.2880   0.1344
   63   88   1       0.2880   0.1344
   63   90   1       0.2880   0.1344
   63   92   1       0.2880   0.1344
   63   94   1       0.2880   0.1344
   63   96   1       0.2880   0.1344
   63   98   1       0.2735   0.1493
   63  100   1       0.2735   0.1493
   63  102   1       0.2831   0.1271
   63  104   1       0.2789   0.1495
   63  106   1       0.2789   0.1495
   63  108   1       0.2755   0.1344
   63  110   1       0.2735   0.1493
   63  112   1       0.3126   0.1458
   63  114   1       0.3037   0.1630
   63  116   1       0.3037   0.1630
   63  118   1       0.2955   0.0956
   63  120   1       0.1255   0.0000
   63  122   1       0.3623   0.0059
   63  124   1       0.3889   0.0042
   63  132   1       0.2268   0.0441
   63  134   1       0.2235   0.0364
   63  136   1       0.1255   0.0000
   63  138   1       0.2837   0.1315
   63  140   1       0.1255   0.0000
   63  142   1       0.2832   0.1283
   63  144   1       0.1255   0.0000
   63  146   1       0.2815   0.1304
   63  148   1       0.1255   0.0000
   63  150   1       0.2838   0.1592
   63  152   1       0.1255   0.0000
   63  154   1       0.1255   0.0000
   63  156   1       0.1255   0.0000
   63  158   1       0.2955   0.1078
   63  160   1       0.2580   0.0408
   63  162   1       0.2955   0.0956
   63  164   1       0.2735   0.1493
   63  166   1       0.2880   0.1344
   63  168   1       0.2491   0.0408
   63  170   1       0.2955   0.0956
   63  172   1       0.2555   0.0399
   63  176   1       0.2880   0.1344
   63  178   1       0.2235   0.0408
   63  180   1       0.2880   0.1344
   63  182   1       0.1790   0.0408
   65    0   1       0.1211   0.0000
   65    2   1       0.2911   0.0956
   65    4   1       0.2911   0.0956
   65    6   1       0.2911   0.0956
   65    8   1       0.2911   0.0956
   65   10   1       0.2911   0.0956
   65   12   1       0.2911   0.0956
   65   14   1       0.2911   0.0956
   65   16   1       0.2911   0.0956
   65   18   1       0.2911   0.0956
   65   20   1       0.2911   0.0956
   65   22   1       0.2911   0.0956
   65   24   1       0.2911   0.1078
   65   26   1       0.2911   0.1078
   65   28   1       0.2911   0.1078
   65   30   1       0.2911   0.1078
   65   32   1       0.2911   0.1078
   65   34   1       0.2911   0.1078
   65   36   1       0.2911   0.1078
   65   38   1       0.2911   0.0956
   65   40   1       0.2911   0.0956
   65   42   1       0.2911   0.0956
   65   44   1       0.2737   0.2210
   65   46   1       0.2770   0.0805
   65   48   1       0.1745   0.0408
   65   50   1       0.1745   0.0408
   65   52   1       0.2535   0.0408
   65   54   1       0.2446   0.0408
   65   56   1       0.2357   0.0408
   65   58   1       0.2268   0.0408
   65   60   1       0.2511   0.0399
   65   62   1       0.2466   0.0399
   65   64   1       0.2421   0.0399
   65   66   1       0.1211   0.0000
   65   68   1       0.1745   0.0408
   65   70   1       0.1211   0.0000
   65   72   1       0.2191   0.0408
   65   74   1       0.3304   0.2061
   65   76   1       0.3411   0.1031
   65   78   1       0.2875   0.0172
   65   80   1       0.5665   0.1031
   65   82   1       0.1917   0.3083
   65   84   1       0.2836   0.1344
   65   86   1       0.2836   0.1344
   65   88   1       0.2836   0.1344
   65   90   1       0.2836   0.1344
   65   92   1       0.2836   0.1344
   65   94   1       0.2836   0.1344
   65   96   1       0.2836   0.1344
   65   98   1       0.2691   0.1493
   65  100   1       0.2691   0.1493
   65  102   1       0.2786   0.1271
   65  104   1       0.2744   0.1495
   65  106   1       0.2744   0.1495
   65  108   1       0.2711   0.1344
   65  110   1       0.2691   0.1493
   65  112   1       0.3082   0.1458
   65  114   1       0.2993   0.1630
   65  116   1       0.2993   0.1630
   65  118   1       0.2911   0.0956
   65  120   1       0.1211   0.0000
   65  122   1       0.3579   0.0059
   65  124   1       0.3844   0.0042
   65  132   1       0.2224   0.0441
   65  134   1       0.2191   0.0364
   65  136   1       0.1211   0.0000
   65  138   1       0.2793   0.1315
   65  140   1       0.1211   0.0000
   65  142   1       0.2788   0.1283
   65  144   1       0.1211   0.0000
   65  146   1       0.2771   0.1304
   65  148   1       0.1211   0.0000
   65  150   1       0.2793   0.1592
   65  152   1       0.1211   0.0000
   65  154   1       0.1211   0.0000
   65  156   1       0.1211   0.0000
   65  158   1       0.2911   0.1078
   65  160   1       0.2535   0.0408
   65  162   1       0.2911   0.0956
   65  164   1       0.2691   0.1493
   65  166   1       0.2836   0.1344
   65  168   1       0.2446   0.0408
   65  170   1       0.2911   0.0956
   65  172   1       0.2511   0.0399
   65  176   1       0.2836   0.1344
   65  178   1       0.2191   0.0408
   65  180   1       0.2836   0.1344
   65  182   1       0.1745   0.0408
   67    0   1       0.0000   0.0000
   67    2   1       0.1700   0.0000
   67    4   1       0.1700   0.0000
   67    6   1       0.1700   0.0000
   67    8   1       0.1700   0.0000
   67   10   1       0.1700   0.0000
   67   12   1       0.1700   0.0000
   67   14   1       0.1700   0.0000
   67   16   1       0.1700   0.0000
   67   18   1       0.1700   0.0000
   67   20   1       0.1700   0.0000
   67   22   1       0.1700   0.0000
   67   24   1       0.1700   0.0000
   67   26   1       0.1700   0.0000
   67   28   1       0.1700   0.0000
   67   30   1       0.1700   0.0000
   67   32   1       0.1700   0.0000
   67   34   1       0.1700   0.0000
   67   36   1       0.1700   0.0000
   67   38   1       0.1700   0.0000
   67   40   1       0.1700   0.0000
   67   42   1       0.1700   0.0000
   67   44   1       0.1526   0.0000
   67   46   1       0.1559   0.0000
   67   48   1       0.0535   0.0000
   67   50   1       0.0535   0.0000
   67   52   1       0.1325   0.0000
   67   54   1       0.1236   0.0000
   67   56   1       0.1147   0.0000
   67   58   1       0.1057   0.0000
   67   60   1       0.1300   0.0000
   67   62   1       0.1255   0.0000
   67   64   1       0.1211   0.0000
   67   66   1       0.0000   0.0000
   67   68   1       0.0535   0.0000
   67   70   1       0.0000   0.0000
   67   72   1       0.0980   0.0000
   67   74   1       0.2094   0.0000
   67   76   1       0.2201   0.0000
   67   78   1       0.1664   0.0000
   67   80   1       0.4454   0.0000
   67   82   1       0.0706   0.0000
   67   84   1       0.1625   0.0000
   67   86   1       0.1625   0.0000
   67   88   1       0.1625   0.0000
   67   90   1       0.1625   0.0000
   67   92   1       0.1625   0.0000
   67   94   1       0.1625   0.0000
   67   96   1       0.1625   0.0000
   67   98   1       0.1480   0.0000
   67  100   1       0.1480   0.0000
   67  102   1       0.1575   0.0000
   67  104   1       0.1533   0.0000
   67  106   1       0.1533   0.0000
   67  108   1       0.1500   0.0000
   67  110   1       0.1480   0.0000
   67  112   1       0.1871   0.0000
   67  114   1       0.1782   0.0000
   67  116   1       0.1782   0.0000
   67  118   1       0.1700   0.0000
   67  120   1       0.0000   0.0000
   67  122   1       0.2368   0.0000
   67  124   1       0.2633   0.0000
   67  132   1       0.1013   0.0000
   67  134   1       0.0980   0.0000
   67  136   1       0.0000   0.0000
   67  138   1       0.1582   0.0000
   67  140   1       0.0000   0.0000
   67  142   1       0.1577   0.0000
   67  144   1       0.0000   0.0000
   67  146   1       0.1560   0.0000
   67  148   1       0.0000   0.0000
   67  150   1       0.1583   0.0000
   67  152   1       0.0000   0.0000
   67  154   1       0.0000   0.0000
   67  156   1       0.0000   0.0000
   67  158   1       0.1700   0.0000
   67  160   1       0.1325   0.0000
   67  162   1       0.1700   0.0000
   67  164   1       0.1480   0.0000
   67  166   1       0.1625   0.0000
   67  168   1       0.1236   0.0000
   67  170   1       0.1700   0.0000
   67  172   1       0.1300   0.0000
   67  176   1       0.1625   0.0000
   67  178   1       0.0980   0.0000
   67  180   1       0.1625   0.0000
   67  182   1       0.0535   0.0000
   69    0   1       0.0535   0.0000
   69    2   1       0.2234   0.0978
   69    4   1       0.2234   0.0978
   69    6   1       0.2234   0.0978
   69    8   1       0.2234   0.0978
   69   10   1       0.2234   0.0978
   69   12   1       0.2234   0.0978
   69   14   1       0.2234   0.0978
   69   16   1       0.2234   0.0978
   69   18   1       0.2234   0.0978
   69   20   1       0.2234   0.0978
   69   22   1       0.2234   0.0978
   69   24   1       0.2234   0.1103
   69   26   1       0.2234   0.1103
   69   28   1       0.2234   0.1103
   69   30   1       0.2234   0.1103
   69   32   1       0.2234   0.1103
   69   34   1       0.2234   0.1103
   69   36   1       0.2234   0.1103
   69   38   1       0.2234   0.0978
   69   40   1       0.2234   0.0978
   69   42   1       0.2234   0.0978
   69   44   1       0.2061   0.2261
   69   46   1       0.2094   0.0824
   69   48   1       0.1069   0.0418
   69   50   1       0.1069   0.0418
   69   52   1       0.1859   0.0418
   69   54   1       0.1770   0.0418
   69   56   1       0.1681   0.0418
   69   58   1       0.1592   0.0418
   69   60   1       0.1834   0.0408
   69   62   1       0.1790   0.0408
   69   64   1       0.1745   0.0408
   69   66   1       0.0535   0.0000
   69   68   1       0.1069   0.0418
   69   70   1       0.0535   0.0000
   69   72   1       0.1515   0.0418
   69   74   1       0.2628   0.2109
   69   76   1       0.2735   0.1054
   69   78   1       0.2199   0.0175
   69   80   1       0.4989   0.1054
   69   82   1       0.1241   0.3154
   69   84   1       0.2160   0.1375
   69   86   1       0.2160   0.1375
   69   88   1       0.2160   0.1375
   69   90   1       0.2160   0.1375
   69   92   1       0.2160   0.1375
   69   94   1       0.2160   0.1375
   69   96   1       0.2160   0.1375
   69   98   1       0.2014   0.1528
   69  100   1       0.2014   0.1528
   69  102   1       0.2110   0.1300
   69  104   1       0.2068   0.1529
   69  106   1       0.2068   0.1529
   69  108   1       0.2035   0.1375
   69  110   1       0.2014   0.1528
   69  112   1       0.2405   0.1491
   69  114   1       0.2316   0.1667
   69  116   1       0.2316   0.1667
   69  118   1       0.2234   0.0978
   69  120   1       0.0535   0.0000
   69  122   1       0.2903   0.0060
   69  124   1       0.3168   0.0043
   69  132   1       0.1547   0.0451
   69  134   1       0.1515   0.0373
   69  136   1       0.0535   0.0000
   69  138   1       0.2117   0.1345
   69  140   1       0.0535   0.0000
   69  142   1       0.2111   0.1313
   69  144   1       0.0535   0.0000
   69  146   1       0.2095   0.1334
   69  148   1       0.0535   0.0000
   69  150   1       0.2117   0.1629
   69  152   1       0.0535   0.0000
   69  154   1       0.0535   0.0000
   69  156   1       0.0535   0.0000
   69  158   1       0.2234   0.1103
   69  160   1       0.1859   0.0418
   69  162   1       0.2234   0.0978
   69  164   1       0.2014   0.1528
   69  166   1       0.2160   0.1375
   69  168   1       0.1770   0.0418
   69  170   1       0.2234   0.0978
   69  172   1       0.1834   0.0408
   69  176   1       0.2160   0.1375
   69  178   1       0.1515   0.0418
   69  180   1       0.2160   0.1375
   69  182   1       0.1069   0.0418
   71    0   1       0.0000   0.0000
   71    2   1       0.1700   0.0000
   71    4   1       0.1700   0.0000
   71    6   1       0.1700   0.0000
   71    8   1       0.1700   0.0000
   71   10   1       0.1700   0.0000
   71   12   1       0.1700   0.0000
   71   14   1       0.1700   0.0000
   71   16   1       0.1700   0.0000
   71   18   1       0.1700   0.0000
   71   20   1       0.1700   0.0000
   71   22   1       0.1700   0.0000
   71   24   1       0.1700   0.0000
   71   26   1       0.1700   0.0000
   71   28   1       0.1700   0.0000
   71   30   1       0.1700   0.0000
   71   32   1       0.1700   0.0000
   71   34   1       0.1700   0.0000
   71   36   1       0.1700   0.0000
   71   38   1       0.1700   0.0000
   71   40   1       0.1700   0.0000
   71   42   1       0.1700   0.0000
   71   44   1       0.1526   0.0000
   71   46   1       0.1559   0.0000
   71   48   1       0.0535   0.0000
   71   50   1       0.0535   0.0000
   71   52   1       0.1325   0.0000
   71   54   1       0.1236   0.0000
   71   56   1       0.1147   0.0000
   71   58   1       0.1057   0.0000
   71   60   1       0.1300   0.0000
   71   62   1       0.1255   0.0000
   71   64   1       0.1211   0.0000
   71   66   1       0.0000   0.0000
   71   68   1       0.0535   0.0000
   71   70   1       0.0000   0.0000
   71   72   1       0.0980   0.0000
   71   74   1       0.2094   0.0000
   71   76   1       0.2201   0.0000
   71   78   1       0.1664   0.0000
   71   80   1       0.4454   0.0000
   71   82   1       0.0706   0.0000
   71   84   1       0.1625   0.0000
   71   86   1       0.1625   0.0000
   71   88   1       0.1625   0.0000
   71   90   1       0.1625   0.0000
   71   92   1       0.1625   0.0000
   71   94   1       0.1625   0.0000
   71   96   1       0.1625   0.0000
   71   98   1       0.1480   0.0000
   71  100   1       0.1480   0.0000
   71  102   1       0.1575   0.0000
   71  104   1       0.1533   0.0000
   71  106   1       0.1533   0.0000
   71  108   1       0.1500   0.0000
   71  110   1       0.1480   0.0000
   71  112   1       0.1871   0.0000
   71  114   1       0.1782   0.0000
   71  116   1       0.1782   0.0000
   71  118   1       0.1700   0.0000
   71  120   1       0.0000   0.0000
   71  122   1       0.2368   0.0000
   71  124   1       0.2633   0.0000
   71  132   1       0.1013   0.0000
   71  134   1       0.0980   0.0000
   71  136   1       0.0000   0.0000
   71  138   1       0.1582   0.0000
   71  140   1       0.0000   0.0000
   71  142   1       0.1577   0.0000
   71  144   1       0.0000   0.0000
   71  146   1       0.1560   0.0000
   71  148   1       0.0000   0.0000
   71  150   1       0.1583   0.0000
   71  152   1       0.0000   0.0000
   71  154   1       0.0000   0.0000
   71  156   1       0.0000   0.0000
   71  158   1       0.1700   0.0000
   71  160   1       0.1325   0.0000
   71  162   1       0.1700   0.0000
   71  164   1       0.1480   0.0000
   71  166   1       0.1625   0.0000
   71  168   1       0.1236   0.0000
   71  170   1       0.1700   0.0000
   71  172   1       0.1300   0.0000
   71  176   1       0.1625   0.0000
   71  178   1       0.0980   0.0000
   71  180   1       0.1625   0.0000
   71  182   1       0.0535   0.0000
   73    0   1       0.0980   0.0000
   73    2   1       0.2680   0.0978
   73    4   1       0.2680   0.0978
   73    6   1       0.2680   0.0978
   73    8   1       0.2680   0.0978
   73   10   1       0.2680   0.0978
   73   12   1       0.2680   0.0978
   73   14   1       0.2680   0.0978
   73   16   1       0.2680   0.0978
   73   18   1       0.2680   0.0978
   73   20   1       0.2680   0.0978
   73   22   1       0.2680   0.0978
   73   24   1       0.2680   0.1103
   73   26   1       0.2680   0.1103
   73   28   1       0.2680   0.1103
   73   30   1       0.2680   0.1103
   73   32   1       0.2680   0.1103
   73   34   1       0.2680   0.1103
   73   36   1       0.2680   0.1103
   73   38   1       0.2680   0.0978
   73   40   1       0.2680   0.0978
   73   42   1       0.2680   0.0978
   73   44   1       0.2506   0.2261
   73   46   1       0.2539   0.0824
   73   48   1       0.1515   0.0418
   73   50   1       0.1515   0.0418
   73   52   1       0.2305   0.0418
   73   54   1       0.2216   0.0418
   73   56   1       0.2127   0.0418
   73   58   1       0.2037   0.0418
   73   60   1       0.2280   0.0408
   73   62   1       0.2235   0.0408
   73   64   1       0.2191   0.0408
   73   66   1       0.0980   0.0000
   73   68   1       0.1515   0.0418
   73   70   1       0.0980   0.0000
   73   72   1       0.1960   0.0418
   73   74   1       0.3074   0.2109
   73   76   1       0.3181   0.1054
   73   78   1       0.2644   0.0175
   73   80   1       0.5434   0.1054
   73   82   1       0.1686   0.3154
   73   84   1       0.2605   0.1375
   73   86   1       0.2605   0.1375
   73   88   1       0.2605   0.1375
   73   90   1       0.2605   0.1375
   73   92   1       0.2605   0.1375
   73   94   1       0.2605   0.1375
   73   96   1       0.2605   0.1375
   73   98   1       0.2460   0.1528
   73  100   1       0.2460   0.1528
   73  102   1       0.2555   0.1300
   73  104   1       0.2513   0.1529
   73  106   1       0.2513   0.1529
   73  108   1       0.2480   0.1375
   73  110   1       0.2460   0.1528
   73  112   1       0.2851   0.1491
   73  114   1       0.2762   0.1667
   73  116   1       0.2762   0.1667
   73  118   1       0.2680   0.0978
   73  120   1       0.0980   0.0000
   73  122   1       0.3348   0.0060
   73  124   1       0.3613   0.0043
   73  132   1       0.1993   0.0451
   73  134   1       0.1960   0.0373
   73  136   1       0.0980   0.0000
   73  138   1       0.2562   0.1345
   73  140   1       0.0980   0.0000
   73  142   1       0.2557   0.1313
   73  144   1       0.0980   0.0000
   73  146   1       0.2540   0.1334
   73  148   1       0.0980   0.0000
   73  150   1       0.2562   0.1629
   73  152   1       0.0980   0.0000
   73  154   1       0.0980   0.0000
   73  156   1       0.0980   0.0000
   73  158   1       0.2680   0.1103
   73  160   1       0.2305   0.0418
   73  162   1       0.2680   0.0978
   73  164   1       0.2460   0.1528
   73  166   1       0.2605   0.1375
   73  168   1       0.2216   0.0418
   73  170   1       0.2680   0.0978
   73  172   1       0.2280   0.0408
   73  176   1       0.2605   0.1375
   73  178   1       0.1960   0.0418
   73  180   1       0.2605   0.1375
   73  182   1       0.1515   0.0418
   75    0   1       0.2094   0.0000
   75    2   1       0.3793   0.4935
   75    4   1       0.3793   0.4935
   75    6   1       0.3793   0.4935
   75    8   1       0.3793   0.4935
   75   10   1       0.3793   0.4935
   75   12   1       0.3793   0.4935
   75   14   1       0.3793   0.4935
   75   16   1       0.3793   0.4935
   75   18   1       0.3793   0.4935
   75   20   1       0.3793   0.4935
   75   22   1       0.3793   0.4935
   75   24   1       0.3793   0.5567
   75   26   1       0.3793   0.5567
   75   28   1       0.3793   0.5567
   75   30   1       0.3793   0.5567
   75   32   1       0.3793   0.5567
   75   34   1       0.3793   0.5567
   75   36   1       0.3793   0.5567
   75   38   1       0.3793   0.4935
   75   40   1       0.3793   0.4935
   75   42   1       0.3793   0.4935
   75   44   1       0.3620   1.1412
   75   46   1       0.3653   0.4157
   75   48   1       0.2628   0.2109
   75   50   1       0.2628   0.2109
   75   52   1       0.3418   0.2109
   75   54   1       0.3329   0.2109
   75   56   1       0.3240   0.2109
   75   58   1       0.3151   0.2109
   75   60   1       0.3393   0.2061
   75   62   1       0.3349   0.2061
   75   64   1       0.3304   0.2061
   75   66   1       0.2094   0.0000
   75   68   1       0.2628   0.2109
   75   70   1       0.2094   0.0000
   75   72   1       0.3074   0.2109
   75   74   1       0.4187   1.0644
   75   76   1       0.4294   0.5322
   75   78   1       0.3758   0.0886
   75   80   1       0.6548   0.5322
   75   82   1       0.2800   1.5919
   75   84   1       0.3719   0.6939
   75   86   1       0.3719   0.6939
   75   88   1       0.3719   0.6939
   75   90   1       0.3719   0.6939
   75   92   1       0.3719   0.6939
   75   94   1       0.3719   0.6939
   75   96   1       0.3719   0.6939
   75   98   1       0.3574   0.7712
   75  100   1       0.3574   0.7712
   75  102   1       0.3669   0.6564
   75  104   1       0.3627   0.7720
   75  106   1       0.3627   0.7720
   75  108   1       0.3594   0.6939
   75  110   1       0.3574   0.7712
   75  112   1       0.3964   0.7527
   75  114   1       0.3875   0.8415
   75  116   1       0.3875   0.8415
   75  118   1       0.3793   0.4935
   75  120   1       0.2094   0.0000
   75  122   1       0.4462   0.0305
   75  124   1       0.4727   0.0219
   75  132   1       0.3107   0.2277
   75  134   1       0.3074   0.1882
   75  136   1       0.2094   0.0000
   75  138   1       0.3676   0.6790
   75  140   1       0.2094   0.0000
   75  142   1       0.3670   0.6626
   75  144   1       0.2094   0.0000
   75  146   1       0.3654   0.6732
   75  148   1       0.2094   0.0000
   75  150   1       0.3676   0.8224
   75  152   1       0.2094   0.0000
   75  154   1       0.2094   0.0000
   75  156   1       0.2094   0.0000
   75  158   1       0.3793   0.5567
   75  160   1       0.3418   0.2109
   75  162   1       0.3793   0.4935
   75  164   1       0.3574   0.7712
   75  166   1       0.3719   0.6939
   75  168   1       0.3329   0.2109
   75  170   1       0.3793   0.4935
   75  172   1       0.3393   0.2061
   75  176   1       0.3719   0.6939
   75  178   1       0.3074   0.2109
   75  180   1       0.3719   0.6939
   75  182   1       0.2628   0.2109
   77    0   1       0.2201   0.0000
   77    2   1       0.3900   0.2468
   77    4   1       0.3900   0.2468
   77    6   1       0.3900   0.2468
   77    8   1       0.3900   0.2468
   77   10   1       0.3900   0.2468
   77   12   1       0.3900   0.2468
   77   14   1       0.3900   0.2468
   77   16   1       0.3900   0.2468
   77   18   1       0.3900   0.2468
   77   20   1       0.3900   0.2468
   77   22   1       0.3900   0.2468
   77   24   1       0.3900   0.2783
   77   26   1       0.3900   0.2783
   77   28   1       0.3900   0.2783
   77   30   1       0.3900   0.2783
   77   32   1       0.3900   0.2783
   77   34   1       0.3900   0.2783
   77   36   1       0.3900   0.2783
   77   38   1       0.3900   0.2468
   77   40   1       0.3900   0.2468
   77   42   1       0.3900   0.2468
   77   44   1       0.3727   0.5706
   77   46   1       0.3760   0.2078
   77   48   1       0.2735   0.1054
   77   50   1       0.2735   0.1054
   77   52   1       0.3525   0.1054
   77   54   1       0.3436   0.1054
   77   56   1       0.3347   0.1054
   77   58   1       0.3258   0.1054
   77   60   1       0.3500   0.1031
   77   62   1       0.3456   0.1031
   77   64   1       0.3411   0.1031
   77   66   1       0.2201   0.0000
   77   68   1       0.2735   0.1054
   77   70   1       0.2201   0.0000
   77   72   1       0.3181   0.1054
   77   74   1       0.4294   0.5322
   77   76   1       0.4401   0.2661
   77   78   1       0.3865   0.0443
   77   80   1       0.6655   0.2661
   77   82   1       0.2907   0.7960
   77   84   1       0.3826   0.3470
   77   86   1       0.3826   0.3470
   77   88   1       0.3826   0.3470
   77   90   1       0.3826   0.3470
   77   92   1       0.3826   0.3470
   77   94   1       0.3826   0.3470
   77   96   1       0.3826   0.3470
   77   98   1       0.3680   0.3856
   77  100   1       0.3680   0.3856
   77  102   1       0.3776   0.3282
   77  104   1       0.3734   0.3860
   77  106   1       0.3734   0.3860
   77  108   1       0.3701   0.3470
   77  110   1       0.3680   0.3856
   77  112   1       0.4071   0.3763
   77  114   1       0.3982   0.4207
   77  116   1       0.3982   0.4207
   77  118   1       0.3900   0.2468
   77  120   1       0.2201   0.0000
   77  122   1       0.4569   0.0152
   77  124   1       0.4834   0.0110
   77  132   1       0.3213   0.1138
   77  134   1       0.3181   0.0941
   77  136   1       0.2201   0.0000
   77  138   1       0.3783   0.3395
   77  140   1       0.2201   0.0000
   77  142   1       0.3777   0.3313
   77  144   1       0.2201   0.0000
   77  146   1       0.3761   0.3366
   77  148   1       0.2201   0.0000
   77  150   1       0.3783   0.4112
   77  152   1       0.2201   0.0000
   77  154   1       0.2201   0.0000
   77  156   1       0.2201   0.0000
   77  158   1       0.3900   0.2783
   77  160   1       0.3525   0.1054
   77  162   1       0.3900   0.2468
   77  164   1       0.3680   0.3856
   77  166   1       0.3826   0.3470
   77  168   1       0.3436   0.1054
   77  170   1       0.3900   0.2468
   77  172   1       0.3500   0.1031
   77  176   1       0.3826   0.3470
   77  178   1       0.3181   0.1054
   77  180   1       0.3826   0.3470
   77  182   1       0.2735   0.1054
   79    0   1       0.1664   0.0000
   79    2   1       0.3364   0.0411
   79    4   1       0.3364   0.0411
   79    6   1       0.3364   0.0411
   79    8   1       0.3364   0.0411
   79   10   1       0.3364   0.0411
   79   12   1       0.3364   0.0411
   79   14   1       0.3364   0.0411
   79   16   1       0.3364   0.0411
   79   18   1       0.3364   0.0411
   79   20   1       0.3364   0.0411
   79   22   1       0.3364   0.0411
   79   24   1       0.3364   0.0463
   79   26   1       0.3364   0.0463
   79   28   1       0.3364   0.0463
   79   30   1       0.3364   0.0463
   79   32   1       0.3364   0.0463
   79   34   1       0.3364   0.0463
   79   36   1       0.3364   0.0463
   79   38   1       0.3364   0.0411
   79   40   1       0.3364   0.0411
   79   42   1       0.3364   0.0411
   79   44   1       0.3190   0.0950
   79   46   1       0.3223   0.0346
   79   48   1       0.2199   0.0175
   79   50   1       0.2199   0.0175
   79   52   1       0.2989   0.0175
   79   54   1       0.2900   0.0175
   79   56   1       0.2811   0.0175
   79   58   1       0.2722   0.0175
   79   60   1       0.2964   0.0172
   79   62   1       0.2919   0.0172
   79   64   1       0.2875   0.0172
   79   66   1       0.1664   0.0000
   79   68   1       0.2199   0.0175
   79   70   1       0.1664   0.0000
   79   72   1       0.2644   0.0175
   79   74   1       0.3758   0.0886
   79   76   1       0.3865   0.0443
   79   78   1       0.3328   0.0074
   79   80   1       0.6119   0.0443
   79   82   1       0.2370   0.1325
   79   84   1       0.3289   0.0577
   79   86   1       0.3289   0.0577
   79   88   1       0.3289   0.0577
   79   90   1       0.3289   0.0577
   79   92   1       0.3289   0.0577
   79   94   1       0.3289   0.0577
   79   96   1       0.3289   0.0577
   79   98   1       0.3144   0.0642
   79  100   1       0.3144   0.0642
   79  102   1       0.3240   0.0546
   79  104   1       0.3197   0.0642
   79  106   1       0.3197   0.0642
   79  108   1       0.3164   0.0577
   79  110   1       0.3144   0.0642
   79  112   1       0.3535   0.0626
   79  114   1       0.3446   0.0700
   79  116   1       0.3446   0.0700
   79  118   1       0.3364   0.0411
   79  120   1       0.1664   0.0000
   79  122   1       0.4032   0.0025
   79  124   1       0.4298   0.0018
   79  132   1       0.2677   0.0189
   79  134   1       0.2644   0.0157
   79  136   1       0.1664   0.0000
   79  138   1       0.3246   0.0565
   79  140   1       0.1664   0.0000
   79  142   1       0.3241   0.0551
   79  144   1       0.1664   0.0000
   79  146   1       0.3224   0.0560
   79  148   1       0.1664   0.0000
   79  150   1       0.3247   0.0684
   79  152   1       0.1664   0.0000
   79  154   1       0.1664   0.0000
   79  156   1       0.1664   0.0000
   79  158   1       0.3364   0.0463
   79  160   1       0.2989   0.0175
   79  162   1       0.3364   0.0411
   79  164   1       0.3144   0.0642
   79  166   1       0.3289   0.0577
   79  168   1       0.2900   0.0175
   79  170   1       0.3364   0.0411
   79  172   1       0.2964   0.0172
   79  176   1       0.3289   0.0577
   79  178   1       0.2644   0.0175
   79  180   1       0.3289   0.0577
   79  182   1       0.2199   0.0175
   81    0   1       0.4454   0.0000
   81    2   1       0.6154   0.2468
   81    4   1       0.6154   0.2468
   81    6   1       0.6154   0.2468
   81    8   1       0.6154   0.2468
   81   10   1       0.6154   0.2468
   81   12   1       0.6154   0.2468
   81   14   1       0.6154   0.2468
   81   16   1       0.6154   0.2468
   81   18   1       0.6154   0.2468
   81   20   1       0.6154   0.2468
   81   22   1       0.6154   0.2468
   81   24   1       0.6154   0.2783
   81   26   1       0.6154   0.2783
   81   28   1       0.6154   0.2783
   81   30   1       0.6154   0.2783
   81   32   1       0.6154   0.2783
   81   34   1       0.6154   0.2783
   81   36   1       0.6154   0.2783
   81   38   1       0.6154   0.2468
   81   40   1       0.6154   0.2468
   81   42   1       0.6154   0.2468
   81   44   1       0.5981   0.5706
   81   46   1       0.6014   0.2078
   81   48   1       0.4989   0.1054
   81   50   1       0.4989   0.1054
   81   52   1       0.5779   0.1054
   81   54   1       0.5690   0.1054
   81   56   1       0.5601   0.1054
   81   58   1       0.5512   0.1054
   81   60   1       0.5754   0.1031
   81   62   1       0.5710   0.1031
   81   64   1       0.5665   0.1031
   81   66   1       0.4454   0.0000
   81   68   1       0.4989   0.1054
   81   70   1       0.4454   0.0000
   81   72   1       0.5434   0.1054
   81   74   1       0.6548   0.5322
   81   76   1       0.6655   0.2661
   81   78   1       0.6119   0.0443
   81   80   1       0.8909   0.2661
   81   82   1       0.5161   0.7960
   81   84   1       0.6079   0.3470
   81   86   1       0.6079   0.3470
   81   88   1       0.6079   0.3470
   81   90   1       0.6079   0.3470
   81   92   1       0.6079   0.3470
   81   94   1       0.6079   0.3470
   81   96   1       0.6079   0.3470
   81   98   1       0.5934   0.3856
   81  100   1       0.5934   0.3856
   81  102   1       0.6030   0.3282
   81  104   1       0.5988   0.3860
   81  106   1       0.5988   0.3860
   81  108   1       0.5954   0.3470
   81  110   1       0.5934   0.3856
   81  112   1       0.6325   0.3763
   81  114   1       0.6236   0.4207
   81  116   1       0.6236   0.4207
   81  118   1       0.6154   0.2468
   81  120   1       0.4454   0.0000
   81  122   1       0.6823   0.0152
   81  124   1       0.7088   0.0110
   81  132   1       0.5467   0.1138
   81  134   1       0.5434   0.0941
   81  136   1       0.4454   0.0000
   81  138   1       0.6037   0.3395
   81  140   1       0.4454   0.0000
   81  142   1       0.6031   0.3313
   81  144   1       0.4454   0.0000
   81  146   1       0.6014   0.3366
   81  148   1       0.4454   0.0000
   81  150   1       0.6037   0.4112
   81  152   1       0.4454   0.0000
   81  154   1       0.4454   0.0000
   81  156   1       0.4454   0.0000
   81  158   1       0.6154   0.2783
   81  160   1       0.5779   0.1054
   81  162   1       0.6154   0.2468
   81  164   1       0.5934   0.3856
   81  166   1       0.6079   0.3470
   81  168   1       0.5690   0.1054
   81  170   1       0.6154   0.2468
   81  172   1       0.5754   0.1031
   81  176   1       0.6079   0.3470
   81  178   1       0.5434   0.1054
   81  180   1       0.6079   0.3470
   81  182   1       0.4989   0.1054
   83    0   1       0.0706   0.0000
   83    2   1       0.2406   0.7381
   83    4   1       0.2406   0.7381
   83    6   1       0.2406   0.7381
   83    8   1       0.2406   0.7381
   83   10   1       0.2406   0.7381
   83   12   1       0.2406   0.7381
   83   14   1       0.2406   0.7381
   83   16   1       0.2406   0.7381
   83   18   1       0.2406   0.7381
   83   20   1       0.2406   0.7381
   83   22   1       0.2406   0.7381
   83   24   1       0.2406   0.8325
   83   26   1       0.2406   0.8325
   83   28   1       0.2406   0.8325
   83   30   1       0.2406   0.8325
   83   32   1       0.2406   0.8325
   83   34   1       0.2406   0.8325
   83   36   1       0.2406   0.8325
   83   38   1       0.2406   0.7381
   83   40   1       0.2406   0.7381
   83   42   1       0.2406   0.7381
   83   44   1       0.2232   1.7067
   83   46   1       0.2265   0.6217
   83   48   1       0.1241   0.3154
   83   50   1       0.1241   0.3154
   83   52   1       0.2031   0.3154
   83   54   1       0.1942   0.3154
   83   56   1       0.1853   0.3154
   83   58   1       0.1764   0.3154
   83   60   1       0.2006   0.3083
   83   62   1       0.1961   0.3083
   83   64   1       0.1917   0.3083
   83   66   1       0.0706   0.0000
   83   68   1       0.1241   0.3154
   83   70   1       0.0706   0.0000
   83   72   1       0.1686   0.3154
   83   74   1       0.2800   1.5919
   83   76   1       0.2907   0.7960
   83   78   1       0.2370   0.1325
   83   80   1       0.5161   0.7960
   83   82   1       0.1412   2.3808
   83   84   1       0.2331   1.0378
   83   86   1       0.2331   1.0378
   83   88   1       0.2331   1.0378
   83   90   1       0.2331   1.0378
   83   92   1       0.2331   1.0378
   83   94   1       0.2331   1.0378
   83   96   1       0.2331   1.0378
   83   98   1       0.2186   1.1534
   83  100   1       0.2186   1.1534
   83  102   1       0.2281   0.9816
   83  104   1       0.2239   1.1545
   83  106   1       0.2239   1.1545
   83  108   1       0.2206   1.0378
   83  110   1       0.2186   1.1534
   83  112   1       0.2577   1.1256
   83  114   1       0.2488   1.2585
   83  116   1       0.2488   1.2585
   83  118   1       0.2406   0.7381
   83  120   1       0.0706   0.0000
   83  122   1       0.3074   0.0456
   83  124   1       0.3340   0.0328
   83  132   1       0.1719   0.3405
   83  134   1       0.1686   0.2814
   83  136   1       0.0706   0.0000
   83  138   1       0.2288   1.0154
   83  140   1       0.0706   0.0000
   83  142   1       0.2283   0.9910
   83  144   1       0.0706   0.0000
   83  146   1       0.2266   1.0068
   83  148   1       0.0706   0.0000
   83  150   1       0.2289   1.2299
   83  152   1       0.0706   0.0000
   83  154   1       0.0706   0.0000
   83  156   1       0.0706   0.0000
   83  158   1       0.2406   0.8325
   83  160   1       0.2031   0.3154
   83  162   1       0.2406   0.7381
   83  164   1       0.2186   1.1534
   83  166   1       0.2331   1.0378
   83  168   1       0.1942   0.3154
   83  170   1       0.2406   0.7381
   83  172   1       0.2006   0.3083
   83  176   1       0.2331   1.0378
   83  178   1       0.1686   0.3154
   83  180   1       0.2331   1.0378
   83  182   1       0.1241   0.3154
   85    0   1       0.1625   0.0000
   85    2   1       0.3325   0.3218
   85    4   1       0.3325   0.3218
   85    6   1       0.3325   0.3218
   85    8   1       0.3325   0.3218
   85   10   1       0.3325   0.3218
   85   12   1       0.3325   0.3218
   85   14   1       0.3325   0.3218
   85   16   1       0.3325   0.3218
   85   18   1       0.3325   0.3218
   85   20   1       0.3325   0.3218
   85   22   1       0.3325   0.3218
   85   24   1       0.3325   0.3629
   85   26   1       0.3325   0.3629
   85   28   1       0.3325   0.3629
   85   30   1       0.3325   0.3629
   85   32   1       0.3325   0.3629
   85   34   1       0.3325   0.3629
   85   36   1       0.3325   0.3629
   85   38   1       0.3325   0.3218
   85   40   1       0.3325   0.3218
   85   42   1       0.3325   0.3218
   85   44   1       0.3151   0.7440
   85   46   1       0.3184   0.2710
   85   48   1       0.2160   0.1375
   85   50   1       0.2160   0.1375
   85   52   1       0.2950   0.1375
   85   54   1       0.2861   0.1375
   85   56   1       0.2772   0.1375
   85   58   1       0.2682   0.1375
   85   60   1       0.2925   0.1344
   85   62   1       0.2880   0.1344
   85   64   1       0.2836   0.1344
   85   66   1       0.1625   0.0000
   85   68   1       0.2160   0.1375
   85   70   1       0.1625   0.0000
   85   72   1       0.2605   0.1375
   85   74   1       0.3719   0.6939
   85   76   1       0.3826   0.3470
   85   78   1       0.3289   0.0577
   85   80   1       0.6079   0.3470
   85   82   1       0.2331   1.0378
   85   84   1       0.3250   0.4524
   85   86   1       0.3250   0.4524
   85   88   1       0.3250   0.4524
   85   90   1       0.3250   0.4524
   85   92   1       0.3250   0.4524
   85   94   1       0.3250   0.4524
   85   96   1       0.3250   0.4524
   85   98   1       0.3105   0.5028
   85  100   1       0.3105   0.5028
   85  102   1       0.3200   0.4279
   85  104   1       0.3158   0.5033
   85  106   1       0.3158   0.5033
   85  108   1       0.3125   0.4524
   85  110   1       0.3105   0.5028
   85  112   1       0.3496   0.4907
   85  114   1       0.3407   0.5486
   85  116   1       0.3407   0.5486
   85  118   1       0.3325   0.3218
   85  120   1       0.1625   0.0000
   85  122   1       0.3993   0.0199
   85  124   1       0.4258   0.0143
   85  132   1       0.2638   0.1484
   85  134   1       0.2605   0.1227
   85  136   1       0.1625   0.0000
   85  138   1       0.3207   0.4426
   85  140   1       0.1625   0.0000
   85  142   1       0.3202   0.4320
   85  144   1       0.1625   0.0000
   85  146   1       0.3185   0.4389
   85  148   1       0.1625   0.0000
   85  150   1       0.3207   0.5361
   85  152   1       0.1625   0.0000
   85  154   1       0.1625   0.0000
   85  156   1       0.1625   0.0000
   85  158   1       0.3325   0.3629
   85  160   1       0.2950   0.1375
   85  162   1       0.3325   0.3218
   85  164   1       0.3105   0.5028
   85  166   1       0.3250   0.4524
   85  168   1       0.2861   0.1375
   85  170   1       0.3325   0.3218
   85  172   1       0.2925   0.1344
   85  176   1       0.3250   0.4524
   85  178   1       0.2605   0.1375
   85  180   1       0.3250   0.4524
   85  182   1       0.2160   0.1375
   87    0   1       0.1625   0.0000
   87    2   1       0.3325   0.3218
   87    4   1       0.3325   0.3218
   87    6   1       0.3325   0.3218
   87    8   1       0.3325   0.3218
   87   10   1       0.3325   0.3218
   87   12   1       0.3325   0.3218
   87   14   1       0.3325   0.3218
   87   16   1       0.3325   0.3218
   87   18   1       0.3325   0.3218
   87   20   1       0.3325   0.3218
   87   22   1       0.3325   0.3218
   87   24   1       0.3325   0.3629
   87   26   1       0.3325   0.3629
   87   28   1       0.3325   0.3629
   87   30   1       0.3325   0.3629
   87   32   1       0.3325   0.3629
   87   34   1       0.3325   0.3629
   87   36   1       0.3325   0.3629
   87   38   1       0.3325   0.3218
   87   40   1       0.3325   0.3218
   87   42   1       0.3325   0.3218
   87   44   1       0.3151   0.7440
   87   46   1       0.3184   0.2710
   87   48   1       0.2160   0.1375
   87   50   1       0.2160   0.1375
   87   52   1       0.2950   0.1375
   87   54   1       0.2861   0.1375
   87   56   1       0.2772   0.1375
   87   58   1       0.2682   0.1375
   87   60   1       0.2925   0.1344
   87   62   1       0.2880   0.1344
   87   64   1       0.2836   0.1344
   87   66   1       0.1625   0.0000
   87   68   1       0.2160   0.1375
   87   70   1       0.1625   0.0000
   87   72   1       0.2605   0.1375
   87   74   1       0.3719   0.6939
   87   76   1       0.3826   0.3470
   87   78   1       0.3289   0.0577
   87   80   1       0.6079   0.3470
   87   82   1       0.2331   1.0378
   87   84   1       0.3250   0.4524
   87   86   1       0.3250   0.4524
   87   88   1       0.3250   0.4524
   87   90   1       0.3250   0.4524
   87   92   1       0.3250   0.4524
   87   94   1       0.3250   0.4524
   87   96   1       0.3250   0.4524
   87   98   1       0.3105   0.5028
   87  100   1       0.3105   0.5028
   87  102   1       0.3200   0.4279
   87  104   1       0.3158   0.5033
   87  106   1       0.3158   0.5033
   87  108   1       0.3125   0.4524
   87  110   1       0.3105   0.5028
   87  112   1       0.3496   0.4907
   87  114   1       0.3407   0.5486
   87  116   1       0.3407   0.5486
   87  118   1       0.3325   0.3218
   87  120   1       0.1625   0.0000
   87  122   1       0.3993   0.0199
   87  124   1       0.4258   0.0143
   87  132   1       0.2638   0.1484
   87  134   1       0.2605   0.1227
   87  136   1       0.1625   0.0000
   87  138   1       0.3207   0.4426
   87  140   1       0.1625   0.0000
   87  142   1       0.3202   0.4320
   87  144   1       0.1625   0.0000
   87  146   1       0.3185   0.4389
   87  148   1       0.1625   0.0000
   87  150   1       0.3207   0.5361
   87  152   1       0.1625   0.0000
   87  154   1       0.1625   0.0000
   87  156   1       0.1625   0.0000
   87  158   1       0.3325   0.3629
   87  160   1       0.2950   0.1375
   87  162   1       0.3325   0.3218
   87  164   1       0.3105   0.5028
   87  166   1       0.3250   0.4524
   87  168   1       0.2861   0.1375
   87  170   1       0.3325   0.3218
   87  172   1       0.2925   0.1344
   87  176   1       0.3250   0.4524
   87  178   1       0.2605   0.1375
   87  180   1       0.3250   0.4524
   87  182   1       0.2160   0.1375
   89    0   1       0.1625   0.0000
   89    2   1       0.3325   0.3218
   89    4   1       0.3325   0.3218
   89    6   1       0.3325   0.3218
   89    8   1       0.3325   0.3218
   89   10   1       0.3325   0.3218
   89   12   1       0.3325   0.3218
   89   14   1       0.3325   0.3218
   89   16   1       0.3325   0.3218
   89   18   1       0.3325   0.3218
   89   20   1       0.3325   0.3218
   89   22   1       0.3325   0.3218
   89   24   1       0.3325   0.3629
   89   26   1       0.3325   0.3629
   89   28   1       0.3325   0.3629
   89   30   1       0.3325   0.3629
   89   32   1       0.3325   0.3629
   89   34   1       0.3325   0.3629
   89   36   1       0.3325   0.3629
   89   38   1       0.3325   0.3218
   89   40   1       0.3325   0.3218
   89   42   1       0.3325   0.3218
   89   44   1       0.3151   0.7440
   89   46   1       0.3184   0.2710
   89   48   1       0.2160   0.1375
   89   50   1       0.2160   0.1375
   89   52   1       0.2950   0.1375
   89   54   1       0.2861   0.1375
   89   56   1       0.2772   0.1375
   89   58   1       0.2682   0.1375
   89   60   1       0.2925   0.1344
   89   62   1       0.2880   0.1344
   89   64   1       0.2836   0.1344
   89   66   1       0.1625   0.0000
   89   68   1       0.2160   0.1375
   89   70   1       0.1625   0.0000
   89   72   1       0.2605   0.1375
   89   74   1       0.3719   0.6939
   89   76   1       0.3826   0.3470
   89   78   1       0.3289   0.0577
   89   80   1       0.6079   0.3470
   89   82   1       0.2331   1.0378
   89   84   1       0.3250   0.4524
   89   86   1       0.3250   0.4524
   89   88   1       0.3250   0.4524
   89   90   1       0.3250   0.4524
   89   92   1       0.3250   0.4524
   89   94   1       0.3250   0.4524
   89   96   1       0.3250   0.4524
   89   98   1       0.3105   0.5028
   89  100   1       0.3105   0.5028
   89  102   1       0.3200   0.4279
   89  104   1       0.3158   0.5033
   89  106   1       0.3158   0.5033
   89  108   1       0.3125   0.4524
   89  110   1       0.3105   0.5028
   89  112   1       0.3496   0.4907
   89  114   1       0.3407   0.5486
   89  116   1       0.3407   0.5486
   89  118   1       0.3325   0.3218
   89  120   1       0.1625   0.0000
   89  122   1       0.3993   0.0199
   89  124   1       0.4258   0.0143
   89  132   1       0.2638   0.1484
   89  134   1       0.2605   0.1227
   89  136   1       0.1625   0.0000
   89  138   1       0.3207   0.4426
   89  140   1       0.1625   0.0000
   89  142   1       0.3202   0.4320
   89  144   1       0.1625   0.0000
   89  146   1       0.3185   0.4389
   89  148   1       0.1625   0.0000
   89  150   1       0.3207   0.5361
   89  152   1       0.1625   0.0000
   89  154   1       0.1625   0.0000
   89  156   1       0.1625   0.0000
   89  158   1       0.3325   0.3629
   89  160   1       0.2950   0.1375
   89  162   1       0.3325   0.3218
   89  164   1       0.3105   0.5028
   89  166   1       0.3250   0.4524
   89  168   1       0.2861   0.1375
   89  170   1       0.3325   0.3218
   89  172   1       0.2925   0.1344
   89  176   1       0.3250   0.4524
   89  178   1       0.2605   0.1375
   89  180   1       0.3250   0.4524
   89  182   1       0.2160   0.1375
   91    0   1       0.1625   0.0000
   91    2   1       0.3325   0.3218
   91    4   1       0.3325   0.3218
   91    6   1       0.3325   0.3218
   91    8   1       0.3325   0.3218
   91   10   1       0.3325   0.3218
   91   12   1       0.3325   0.3218
   91   14   1       0.3325   0.3218
   91   16   1       0.3325   0.3218
   91   18   1       0.3325   0.3218
   91   20   1       0.3325   0.3218
   91   22   1       0.3325   0.3218
   91   24   1       0.3325   0.3629
   91   26   1       0.3325   0.3629
   91   28   1       0.3325   0.3629
   91   30   1       0.3325   0.3629
   91   32   1       0.3325   0.3629
   91   34   1       0.3325   0.3629
   91   36   1       0.3325   0.3629
   91   38   1       0.3325   0.3218
   91   40   1       0.3325   0.3218
   91   42   1       0.3325   0.3218
   91   44   1       0.3151   0.7440
   91   46   1       0.3184   0.2710
   91   48   1       0.2160   0.1375
   91   50   1       0.2160   0.1375
   91   52   1       0.2950   0.1375
   91   54   1       0.2861   0.1375
   91   56   1       0.2772   0.1375
   91   58   1       0.2682   0.1375
   91   60   1       0.2925   0.1344
   91   62   1       0.2880   0.1344
   91   64   1       0.2836   0.1344
   91   66   1       0.1625   0.0000
   91   68   1       0.2160   0.1375
   91   70   1       0.1625   0.0000
   91   72   1       0.2605   0.1375
   91   74   1       0.3719   0.6939
   91   76   1       0.3826   0.3470
   91   78   1       0.3289   0.0577
   91   80   1       0.6079   0.3470
   91   82   1       0.2331   1.0378
   91   84   1       0.3250   0.4524
   91   86   1       0.3250   0.4524
   91   88   1       0.3250   0.4524
   91   90   1       0.3250   0.4524
   91   92   1       0.3250   0.4524
   91   94   1       0.3250   0.4524
   91   96   1       0.3250   0.4524
   91   98   1       0.3105   0.5028
   91  100   1       0.3105   0.5028
   91  102   1       0.3200   0.4279
   91  104   1       0.3158   0.5033
   91  106   1       0.3158   0.5033
   91  108   1       0.3125   0.4524
   91  110   1       0.3105   0.5028
   91  112   1       0.3496   0.4907
   91  114   1       0.3407   0.5486
   91  116   1       0.3407   0.5486
   91  118   1       0.3325   0.3218
   91  120   1       0.1625   0.0000
   91  122   1       0.3993   0.0199
   91  124   1       0.4258   0.0143
   91  132   1       0.2638   0.1484
   91  134   1       0.2605   0.1227
   91  136   1       0.1625   0.0000
   91  138   1       0.3207   0.4426
   91  140   1       0.1625   0.0000
   91  142   1       0.3202   0.4320
   91  144   1       0.1625   0.0000
   91  146   1       0.3185   0.4389
   91  148   1       0.1625   0.0000
   91  150   1       0.3207   0.5361
   91  152   1       0.1625   0.0000
   91  154   1       0.1625   0.0000
   91  156   1       0.1625   0.0000
   91  158   1       0.3325   0.3629
   91  160   1       0.2950   0.1375
   91  162   1       0.3325   0.3218
   91  164   1       0.3105   0.5028
   91  166   1       0.3250   0.4524
   91  168   1       0.2861   0.1375
   91  170   1       0.3325   0.3218
   91  172   1       0.2925   0.1344
   91  176   1       0.3250   0.4524
   91  178   1       0.2605   0.1375
   91  180   1       0.3250   0.4524
   91  182   1       0.2160   0.1375
   93    0   1       0.1625   0.0000
   93    2   1       0.3325   0.3218
   93    4   1       0.3325   0.3218
   93    6   1       0.3325   0.3218
   93    8   1       0.3325   0.3218
   93   10   1       0.3325   0.3218
   93   12   1       0.3325   0.3218
   93   14   1       0.3325   0.3218
   93   16   1       0.3325   0.3218
   93   18   1       0.3325   0.3218
   93   20   1       0.3325   0.3218
   93   22   1       0.3325   0.3218
   93   24   1       0.3325   0.3629
   93   26   1       0.3325   0.3629
   93   28   1       0.3325   0.3629
   93   30   1       0.3325   0.3629
   93   32   1       0.3325   0.3629
   93   34   1       0.3325   0.3629
   93   36   1       0.3325   0.3629
   93   38   1       0.3325   0.3218
   93   40   1       0.3325   0.3218
   93   42   1       0.3325   0.3218
   93   44   1       0.3151   0.7440
   93   46   1       0.3184   0.2710
   93   48   1       0.2160   0.1375
   93   50   1       0.2160   0.1375
   93   52   1       0.2950   0.1375
   93   54   1       0.2861   0.1375
   93   56   1       0.2772   0.1375
   93   58   1       0.2682   0.1375
   93   60   1       0.2925   0.1344
   93   62   1       0.2880   0.1344
   93   64   1       0.2836   0.1344
   93   66   1       0.1625   0.0000
   93   68   1       0.2160   0.1375
   93   70   1       0.1625   0.0000
   93   72   1       0.2605   0.1375
   93   74   1       0.3719   0.6939
   93   76   1       0.3826   0.3470
   93   78   1       0.3289   0.0577
   93   80   1       0.6079   0.3470
   93   82   1       0.2331   1.0378
   93   84   1       0.3250   0.4524
   93   86   1       0.3250   0.4524
   93   88   1       0.3250   0.4524
   93   90   1       0.3250   0.4524
   93   92   1       0.3250   0.4524
   93   94   1       0.3250   0.4524
   93   96   1       0.3250   0.4524
   93   98   1       0.3105   0.5028
   93  100   1       0.3105   0.5028
   93  102   1       0.3200   0.4279
   93  104   1       0.3158   0.5033
   93  106   1       0.3158   0.5033
   93  108   1       0.3125   0.4524
   93  110   1       0.3105   0.5028
   93  112   1       0.3496   0.4907
   93  114   1       0.3407   0.5486
   93  116   1       0.3407   0.5486
   93  118   1       0.3325   0.3218
   93  120   1       0.1625   0.0000
   93  122   1       0.3993   0.0199
   93  124   1       0.4258   0.0143
   93  132   1       0.2638   0.1484
   93  134   1       0.2605   0.1227
   93  136   1       0.1625   0.0000
   93  138   1       0.3207   0.4426
   93  140   1       0.1625   0.0000
   93  142   1       0.3202   0.4320
   93  144   1       0.1625   0.0000
   93  146   1       0.3185   0.4389
   93  148   1       0.1625   0.0000
   93  150   1       0.3207   0.5361
   93  152   1       0.1625   0.0000
   93  154   1       0.1625   0.0000
   93  156   1       0.1625   0.0000
   93  158   1       0.3325   0.3629
   93  160   1       0.2950   0.1375
   93  162   1       0.3325   0.3218
   93  164   1       0.3105   0.5028
   93  166   1       0.3250   0.4524
   93  168   1       0.2861   0.1375
   93  170   1       0.3325   0.3218
   93  172   1       0.2925   0.1344
   93  176   1       0.3250   0.4524
   93  178   1       0.2605   0.1375
   93  180   1       0.3250   0.4524
   93  182   1       0.2160   0.1375
   95    0   1       0.1625   0.0000
   95    2   1       0.3325   0.3218
   95    4   1       0.3325   0.3218
   95    6   1       0.3325   0.3218
   95    8   1       0.3325   0.3218
   95   10   1       0.3325   0.3218
   95   12   1       0.3325   0.3218
   95   14   1       0.3325   0.3218
   95   16   1       0.3325   0.3218
   95   18   1       0.3325   0.3218
   95   20   1       0.3325   0.3218
   95   22   1       0.3325   0.3218
   95   24   1       0.3325   0.3629
   95   26   1       0.3325   0.3629
   95   28   1       0.3325   0.3629
   95   30   1       0.3325   0.3629
   95   32   1       0.3325   0.3629
   95   34   1       0.3325   0.3629
   95   36   1       0.3325   0.3629
   95   38   1       0.3325   0.3218
   95   40   1       0.3325   0.3218
   95   42   1       0.3325   0.3218
   95   44   1       0.3151   0.7440
   95   46   1       0.3184   0.2710
   95   48   1       0.2160   0.1375
   95   50   1       0.2160   0.1375
   95   52   1       0.2950   0.1375
   95   54   1       0.2861   0.1375
   95   56   1       0.2772   0.1375
   95   58   1       0.2682   0.1375
   95   60   1       0.2925   0.1344
   95   62   1       0.2880   0.1344
   95   64   1       0.2836   0.1344
   95   66   1       0.1625   0.0000
   95   68   1       0.2160   0.1375
   95   70   1       0.1625   0.0000
   95   72   1       0.2605   0.1375
   95   74   1       0.3719   0.6939
   95   76   1       0.3826   0.3470
   95   78   1       0.3289   0.0577
   95   80   1       0.6079   0.3470
   95   82   1       0.2331   1.0378
   95   84   1       0.3250   0.4524
   95   86   1       0.3250   0.4524
   95   88   1       0.3250   0.4524
   95   90   1       0.3250   0.4524
   95   92   1       0.3250   0.4524
   95   94   1       0.3250   0.4524
   95   96   1       0.3250   0.4524
   95   98   1       0.3105   0.5028
   95  100   1       0.3105   0.5028
   95  102   1       0.3200   0.4279
   95  104   1       0.3158   0.5033
   95  106   1       0.3158   0.5033
   95  108   1       0.3125   0.4524
   95  110   1       0.3105   0.5028
   95  112   1       0.3496   0.4907
   95  114   1       0.3407   0.5486
   95  116   1       0.3407   0.5486
   95  118   1       0.3325   0.3218
   95  120   1       0.1625   0.0000
   95  122   1       0.3993   0.0199
   95  124   1       0.4258   0.0143
   95  132   1       0.2638   0.1484
   95  134   1       0.2605   0.1227
   95  136   1       0.1625   0.0000
   95  138   1       0.3207   0.4426
   95  140   1       0.1625   0.0000
   95  142   1       0.3202   0.4320
   95  144   1       0.1625   0.0000
   95  146   1       0.3185   0.4389
   95  148   1       0.1625   0.0000
   95  150   1       0.3207   0.5361
   95  152   1       0.1625   0.0000
   95  154   1       0.1625   0.0000
   95  156   1       0.1625   0.0000
   95  158   1       0.3325   0.3629
   95  160   1       0.2950   0.1375
   95  162   1       0.3325   0.3218
   95  164   1       0.3105   0.5028
   95  166   1       0.3250   0.4524
   95  168   1       0.2861   0.1375
   95  170   1       0.3325   0.3218
   95  172   1       0.2925   0.1344
   95  176   1       0.3250   0.4524
   95  178   1       0.2605   0.1375
   95  180   1       0.3250   0.4524
   95  182   1       0.2160   0.1375
   97    0   1       0.1625   0.0000
   97    2   1       0.3325   0.3218
   97    4   1       0.3325   0.3218
   97    6   1       0.3325   0.3218
   97    8   1       0.3325   0.3218
   97   10   1       0.3325   0.3218
   97   12   1       0.3325   0.3218
   97   14   1       0.3325   0.3218
   97   16   1       0.3325   0.3218
   97   18   1       0.3325   0.3218
   97   20   1       0.3325   0.3218
   97   22   1       0.3325   0.3218
   97   24   1       0.3325   0.3629
   97   26   1       0.3325   0.3629
   97   28   1       0.3325   0.3629
   97   30   1       0.3325   0.3629
   97   32   1       0.3325   0.3629
   97   34   1       0.3325   0.3629
   97   36   1       0.3325   0.3629
   97   38   1       0.3325   0.3218
   97   40   1       0.3325   0.3218
   97   42   1       0.3325   0.3218
   97   44   1       0.3151   0.7440
   97   46   1       0.3184   0.2710
   97   48   1       0.2160   0.1375
   97   50   1       0.2160   0.1375
   97   52   1       0.2950   0.1375
   97   54   1       0.2861   0.1375
   97   56   1       0.2772   0.1375
   97   58   1       0.2682   0.1375
   97   60   1       0.2925   0.1344
   97   62   1       0.2880   0.1344
   97   64   1       0.2836   0.1344
   97   66   1       0.1625   0.0000
   97   68   1       0.2160   0.1375
   97   70   1       0.1625   0.0000
   97   72   1       0.2605   0.1375
   97   74   1       0.3719   0.6939
   97   76   1       0.3826   0.3470
   97   78   1       0.3289   0.0577
   97   80   1       0.6079   0.3470
   97   82   1       0.2331   1.0378
   97   84   1       0.3250   0.4524
   97   86   1       0.3250   0.4524
   97   88   1       0.3250   0.4524
   97   90   1       0.3250   0.4524
   97   92   1       0.3250   0.4524
   97   94   1       0.3250   0.4524
   97   96   1       0.3250   0.4524
   97   98   1       0.3105   0.5028
   97  100   1       0.3105   0.5028
   97  102   1       0.3200   0.4279
   97  104   1       0.3158   0.5033
   97  106   1       0.3158   0.5033
   97  108   1       0.3125   0.4524
   97  110   1       0.3105   0.5028
   97  112   1       0.3496   0.4907
   97  114   1       0.3407   0.5486
   97  116   1       0.3407   0.5486
   97  118   1       0.3325   0.3218
   97  120   1       0.1625   0.0000
   97  122   1       0.3993   0.0199
   97  124   1       0.4258   0.0143
   97  132   1       0.2638   0.1484
   97  134   1       0.2605   0.1227
   97  136   1       0.1625   0.0000
   97  138   1       0.3207   0.4426
   97  140   1       0.1625   0.0000
   97  142   1       0.3202   0.4320
   97  144   1       0.1625   0.0000
   97  146   1       0.3185   0.4389
   97  148   1       0.1625   0.0000
   97  150   1       0.3207   0.5361
   97  152   1       0.1625   0.0000
   97  154   1       0.1625   0.0000
   97  156   1       0.1625   0.0000
   97  158   1       0.3325   0.3629
   97  160   1       0.2950   0.1375
   97  162   1       0.3325   0.3218
   97  164   1       0.3105   0.5028
   97  166   1       0.3250   0.4524
   97  168   1       0.2861   0.1375
   97  170   1       0.3325   0.3218
   97  172   1       0.2925   0.1344
   97  176   1       0.3250   0.4524
   97  178   1       0.2605   0.1375
   97  180   1       0.3250   0.4524
   97  182   1       0.2160   0.1375
   99    0   1       0.1480   0.0000
   99    2   1       0.3180   0.3576
   99    4   1       0.3180   0.3576
   99    6   1       0.3180   0.3576
   99    8   1       0.3180   0.3576
   99   10   1       0.3180   0.3576
   99   12   1       0.3180   0.3576
   99   14   1       0.3180   0.3576
   99   16   1       0.3180   0.3576
   99   18   1       0.3180   0.3576
   99   20   1       0.3180   0.3576
   99   22   1       0.3180   0.3576
   99   24   1       0.3180   0.4033
   99   26   1       0.3180   0.4033
   99   28   1       0.3180   0.4033
   99   30   1       0.3180   0.4033
   99   32   1       0.3180   0.4033
   99   34   1       0.3180   0.4033
   99   36   1       0.3180   0.4033
   99   38   1       0.3180   0.3576
   99   40   1       0.3180   0.3576
   99   42   1       0.3180   0.3576
   99   44   1       0.3006   0.8269
   99   46   1       0.3039   0.3012
   99   48   1       0.2014   0.1528
   99   50   1       0.2014   0.1528
   99   52   1       0.2805   0.1528
   99   54   1       0.2716   0.1528
   99   56   1       0.2627   0.1528
   99   58   1       0.2537   0.1528
   99   60   1       0.2780   0.1493
   99   62   1       0.2735   0.1493
   99   64   1       0.2691   0.1493
   99   66   1       0.1480   0.0000
   99   68   1       0.2014   0.1528
   99   70   1       0.1480   0.0000
   99   72   1       0.2460   0.1528
   99   74   1       0.3574   0.7712
   99   76   1       0.3680   0.3856
   99   78   1       0.3144   0.0642
   99   80   1       0.5934   0.3856
   99   82   1       0.2186   1.1534
   99   84   1       0.3105   0.5028
   99   86   1       0.3105   0.5028
   99   88   1       0.3105   0.5028
   99   90   1       0.3105   0.5028
   99   92   1       0.3105   0.5028
   99   94   1       0.3105   0.5028
   99   96   1       0.3105   0.5028
   99   98   1       0.2960   0.5588
   99  100   1       0.2960   0.5588
   99  102   1       0.3055   0.4756
   99  104   1       0.3013   0.5593
   99  106   1       0.3013   0.5593
   99  108   1       0.2980   0.5028
   99  110   1       0.2960   0.5588
   99  112   1       0.3351   0.5453
   99  114   1       0.3262   0.6097
   99  116   1       0.3262   0.6097
   99  118   1       0.3180   0.3576
   99  120   1       0.1480   0.0000
   99  122   1       0.3848   0.0221
   99  124   1       0.4113   0.0159
   99  132   1       0.2493   0.1650
   99  134   1       0.2460   0.1363
   99  136   1       0.1480   0.0000
   99  138   1       0.3062   0.4919
   99  140   1       0.1480   0.0000
   99  142   1       0.3057   0.4801
   99  144   1       0.1480   0.0000
   99  146   1       0.3040   0.4878
   99  148   1       0.1480   0.0000
   99  150   1       0.3062   0.5959
   99  152   1       0.1480   0.0000
   99  154   1       0.1480   0.0000
   99  156   1       0.1480   0.0000
   99  158   1       0.3180   0.4033
   99  160   1       0.2805   0.1528
   99  162   1       0.3180   0.3576
   99  164   1       0.2960   0.5588
   99  166   1       0.3105   0.5028
   99  168   1       0.2716   0.1528
   99  170   1       0.3180   0.3576
   99  172   1       0.2780   0.1493
   99  176   1       0.3105   0.5028
   99  178   1       0.2460   0.1528
   99  180   1       0.3105   0.5028
   99  182   1       0.2014   0.1528
  101    0   1       0.1480   0.0000
  101    2   1       0.3180   0.3576
  101    4   1       0.3180   0.3576
  101    6   1       0.3180   0.3576
  101    8   1       0.3180   0.3576
  101   10   1       0.3180   0.3576
  101   12   1       0.3180   0.3576
  101   14   1       0.3180   0.3576
  101   16   1       0.3180   0.3576
  101   18   1       0.3180   0.3576
  101   20   1       0.3180   0.3576
  101   22   1       0.3180   0.3576
  101   24   1       0.3180   0.4033
  101   26   1       0.3180   0.4033
  101   28   1       0.3180   0.4033
  101   30   1       0.3180   0.4033
  101   32   1       0.3180   0.4033
  101   34   1       0.3180   0.4033
  101   36   1       0.3180   0.4033
  101   38   1       0.3180   0.3576
  101   40   1       0.3180   0.3576
  101   42   1       0.3180   0.3576
  101   44   1       0.3006   0.8269
  101   46   1       0.3039   0.3012
  101   48   1       0.2014   0.1528
  101   50   1       0.2014   0.1528
  101   52   1       0.2805   0.1528
  101   54   1       0.2716   0.1528
  101   56   1       0.2627   0.1528
  101   58   1       0.2537   0.1528
  101   60   1       0.2780   0.1493
  101   62   1       0.2735   0.1493
  101   64   1       0.2691   0.1493
  101   66   1       0.1480   0.0000
  101   68   1       0.2014   0.1528
  101   70   1       0.1480   0.0000
  101   72   1       0.2460   0.1528
  101   74   1       0.3574   0.7712
  101   76   1       0.3680   0.3856
  101   78   1       0.3144   0.0642
  101   80   1       0.5934   0.3856
  101   82   1       0.2186   1.1534
  101   84   1       0.3105   0.5028
  101   86   1       0.3105   0.5028
  101   88   1       0.3105   0.5028
  101   90   1       0.3105   0.5028
  101   92   1       0.3105   0.5028
  101   94   1       0.3105   0.5028
  101   96   1       0.3105   0.5028
  101   98   1       0.2960   0.5588
  101  100   1       0.2960   0.5588
  101  102   1       0.3055   0.4756
  101  104   1       0.3013   0.5593
  101  106   1       0.3013   0.5593
  101  108   1       0.2980   0.5028
  101  110   1       0.2960   0.5588
  101  112   1       0.3351   0.5453
  101  114   1       0.3262   0.6097
  101  116   1       0.3262   0.6097
  101  118   1       0.3180   0.3576
  101  120   1       0.1480   0.0000
  101  122   1       0.3848   0.0221
  101  124   1       0.4113   0.0159
  101  132   1       0.2493   0.1650
  101  134   1       0.2460   0.1363
  101  136   1       0.1480   0.0000
  101  138   1       0.3062   0.4919
  101  140   1       0.1480   0.0000
  101  142   1       0.3057   0.4801
  101  144   1       0.1480   0.0000
  101  146   1       0.3040   0.4878
  101  148   1       0.1480   0.0000
  101  150   1       0.3062   0.5959
  101  152   1       0.1480   0.0000
  101  154   1       0.1480   0.0000
  101  156   1       0.1480   0.0000
  101  158   1       0.3180   0.4033
  101  160   1       0.2805   0.1528
  101  162   1       0.3180   0.3576
  101  164   1       0.2960   0.5588
  101  166   1       0.3105   0.5028
  101  168   1       0.2716   0.1528
  101  170   1       0.3180   0.3576
  101  172   1       0.2780   0.1493
  101  176   1       0.3105   0.5028
  101  178   1       0.2460   0.1528
  101  180   1       0.3105   0.5028
  101  182   1       0.2014   0.1528
  103    0   1       0.1575   0.0000
  103    2   1       0.3275   0.3043
  103    4   1       0.3275   0.3043
  103    6   1       0.3275   0.3043
  103    8   1       0.3275   0.3043
  103   10   1       0.3275   0.3043
  103   12   1       0.3275   0.3043
  103   14   1       0.3275   0.3043
  103   16   1       0.3275   0.3043
  103   18   1       0.3275   0.3043
  103   20   1       0.3275   0.3043
  103   22   1       0.3275   0.3043
  103   24   1       0.3275   0.3433
  103   26   1       0.3275   0.3433
  103   28   1       0.3275   0.3433
  103   30   1       0.3275   0.3433
  103   32   1       0.3275   0.3433
  103   34   1       0.3275   0.3433
  103   36   1       0.3275   0.3433
  103   38   1       0.3275   0.3043
  103   40   1       0.3275   0.3043
  103   42   1       0.3275   0.3043
  103   44   1       0.3102   0.7037
  103   46   1       0.3134   0.2563
  103   48   1       0.2110   0.1300
  103   50   1       0.2110   0.1300
  103   52   1       0.2900   0.1300
  103   54   1       0.2811   0.1300
  103   56   1       0.2722   0.1300
  103   58   1       0.2633   0.1300
  103   60   1       0.2875   0.1271
  103   62   1       0.2831   0.1271
  103   64   1       0.2786   0.1271
  103   66   1       0.1575   0.0000
  103   68   1       0.2110   0.1300
  103   70   1       0.1575   0.0000
  103   72   1       0.2555   0.1300
  103   74   1       0.3669   0.6564
  103   76   1       0.3776   0.3282
  103   78   1       0.3240   0.0546
  103   80   1       0.6030   0.3282
  103   82   1       0.2281   0.9816
  103   84   1       0.3200   0.4279
  103   86   1       0.3200   0.4279
  103   88   1       0.3200   0.4279
  103   90   1       0.3200   0.4279
  103   92   1       0.3200   0.4279
  103   94   1       0.3200   0.4279
  103   96   1       0.3200   0.4279
  103   98   1       0.3055   0.4756
  103  100   1       0.3055   0.4756
  103  102   1       0.3151   0.4047
  103  104   1       0.3109   0.4760
  103  106   1       0.3109   0.4760
  103  108   1       0.3075   0.4279
  103  110   1       0.3055   0.4756
  103  112   1       0.3446   0.4641
  103  114   1       0.3357   0.5189
  103  116   1       0.3357   0.5189
  103  118   1       0.3275   0.3043
  103  120   1       0.1575   0.0000
  103  122   1       0.3943   0.0188
  103  124   1       0.4209   0.0135
  103  132   1       0.2588   0.1404
  103  134   1       0.2555   0.1160
  103  136   1       0.1575   0.0000
  103  138   1       0.3157   0.4187
  103  140   1       0.1575   0.0000
  103  142   1       0.3152   0.4086
  103  144   1       0.1575   0.0000
  103  146   1       0.3135   0.4151
  103  148   1       0.1575   0.0000
  103  150   1       0.3158   0.5071
  103  152   1       0.1575   0.0000
  103  154   1       0.1575   0.0000
  103  156   1       0.1575   0.0000
  103  158   1       0.3275   0.3433
  103  160   1       0.2900   0.1300
  103  162   1       0.3275   0.3043
  103  164   1       0.3055   0.4756
  103  166   1       0.3200   0.4279
  103  168   1       0.2811   0.1300
  103  170   1       0.3275   0.3043
  103  172   1       0.2875   0.1271
  103  176   1       0.3200   0.4279
  103  178   1       0.2555   0.1300
  103  180   1       0.3200   0.4279
  103  182   1       0.2110   0.1300
  105    0   1       0.1533   0.0000
  105    2   1       0.3233   0.3579
  105    4   1       0.3233   0.3579
  105    6   1       0.3233   0.3579
  105    8   1       0.3233   0.3579
  105   10   1       0.3233   0.3579
  105   12   1       0.3233   0.3579
  105   14   1       0.3233   0.3579
  105   16   1       0.3233   0.3579
  105   18   1       0.3233   0.3579
  105   20   1       0.3233   0.3579
  105   22   1       0.3233   0.3579
  105   24   1       0.3233   0.4037
  105   26   1       0.3233   0.4037
  105   28   1       0.3233   0.4037
  105   30   1       0.3233   0.4037
  105   32   1       0.3233   0.4037
  105   34   1       0.3233   0.4037
  105   36   1       0.3233   0.4037
  105   38   1       0.3233   0.3579
  105   40   1       0.3233   0.3579
  105   42   1       0.3233   0.3579
  105   44   1       0.3059   0.8277
  105   46   1       0.3092   0.3015
  105   48   1       0.2068   0.1529
  105   50   1       0.2068   0.1529
  105   52   1       0.2858   0.1529
  105   54   1       0.2769   0.1529
  105   56   1       0.2680   0.1529
  105   58   1       0.2591   0.1529
  105   60   1       0.2833   0.1495
  105   62   1       0.2789   0.1495
  105   64   1       0.2744   0.1495
  105   66   1       0.1533   0.0000
  105   68   1       0.2068   0.1529
  105   70   1       0.1533   0.0000
  105   72   1       0.2513   0.1529
  105   74   1       0.3627   0.7720
  105   76   1       0.3734   0.3860
  105   78   1       0.3197   0.0642
  105   80   1       0.5988   0.3860
  105   82   1       0.2239   1.1545
  105   84   1       0.3158   0.5033
  105   86   1       0.3158   0.5033
  105   88   1       0.3158   0.5033
  105   90   1       0.3158   0.5033
  105   92   1       0.3158   0.5033
  105   94   1       0.3158   0.5033
  105   96   1       0.3158   0.5033
  105   98   1       0.3013   0.5593
  105  100   1       0.3013   0.5593
  105  102   1       0.3109   0.4760
  105  104   1       0.3066   0.5599
  105  106   1       0.3066   0.5599
  105  108   1       0.3033   0.5033
  105  110   1       0.3013   0.5593
  105  112   1       0.3404   0.5459
  105  114   1       0.3315   0.6103
  105  116   1       0.3315   0.6103
  105  118   1       0.3233   0.3579
  105  120   1       0.1533   0.0000
  105  122   1       0.3901   0.0221
  105  124   1       0.4167   0.0159
  105  132   1       0.2546   0.1651
  105  134   1       0.2513   0.1365
  105  136   1       0.1533   0.0000
  105  138   1       0.3115   0.4924
  105  140   1       0.1533   0.0000
  105  142   1       0.3110   0.4805
  105  144   1       0.1533   0.0000
  105  146   1       0.3093   0.4882
  105  148   1       0.1533   0.0000
  105  150   1       0.3116   0.5964
  105  152   1       0.1533   0.0000
  105  154   1       0.1533   0.0000
  105  156   1       0.1533   0.0000
  105  158   1       0.3233   0.4037
  105  160   1       0.2858   0.1529
  105  162   1       0.3233   0.3579
  105  164   1       0.3013   0.5593
  105  166   1       0.3158   0.5033
  105  168   1       0.2769   0.1529
  105  170   1       0.3233   0.3579
  105  172   1       0.2833   0.1495
  105  176   1       0.3158   0.5033
  105  178   1       0.2513   0.1529
  105  180   1       0.3158   0.5033
  105  182   1       0.2068   0.1529
  107    0   1       0.1533   0.0000
  107    2   1       0.3233   0.3579
  107    4   1       0.3233   0.3579
  107    6   1       0.3233   0.3579
  107    8   1       0.3233   0.3579
  107   10   1       0.3233   0.3579
  107   12   1       0.3233   0.3579
  107   14   1       0.3233   0.3579
  107   16   1       0.3233   0.3579
  107   18   1       0.3233   0.3579
  107   20   1       0.3233   0.3579
  107   22   1       0.3233   0.3579
  107   24   1       0.3233   0.4037
  107   26   1       0.3233   0.4037
  107   28   1       0.3233   0.4037
  107   30   1       0.3233   0.4037
  107   32   1       0.3233   0.4037
  107   34   1       0.3233   0.4037
  107   36   1       0.3233   0.4037
  107   38   1       0.3233   0.3579
  107   40   1       0.3233   0.3579
  107   42   1       0.3233   0.3579
  107   44   1       0.3059   0.8277
  107   46   1       0.3092   0.3015
  107   48   1       0.2068   0.1529
  107   50   1       0.2068   0.1529
  107   52   1       0.2858   0.1529
  107   54   1       0.2769   0.1529
  107   56   1       0.2680   0.1529
  107   58   1       0.2591   0.1529
  107   60   1       0.2833   0.1495
  107   62   1       0.2789   0.1495
  107   64   1       0.2744   0.1495
  107   66   1       0.1533   0.0000
  107   68   1       0.2068   0.1529
  107   70   1       0.1533   0.0000
  107   72   1       0.2513   0.1529
  107   74   1       0.3627   0.7720
  107   76   1       0.3734   0.3860
  107   78   1       0.3197   0.0642
  107   80   1       0.5988   0.3860
  107   82   1       0.2239   1.1545
  107   84   1       0.3158   0.5033
  107   86   1       0.3158   0.5033
  107   88   1       0.3158   0.5033
  107   90   1       0.3158   0.5033
  107   92   1       0.3158   0.5033
  107   94   1       0.3158   0.5033
  107   96   1       0.3158   0.5033
  107   98   1       0.3013   0.5593
  107  100   1       0.3013   0.5593
  107  102   1       0.3109   0.4760
  107  104   1       0.3066   0.5599
  107  106   1       0.3066   0.5599
  107  108   1       0.3033   0.5033
  107  110   1       0.3013   0.5593
  107  112   1       0.3404   0.5459
  107  114   1       0.3315   0.6103
  107  116   1       0.3315   0.6103
  107  118   1       0.3233   0.3579
  107  120   1       0.1533   0.0000
  107  122   1       0.3901   0.0221
  107  124   1       0.4167   0.0159
  107  132   1       0.2546   0.1651
  107  134   1       0.2513   0.1365
  107  136   1       0.1533   0.0000
  107  138   1       0.3115   0.4924
  107  140   1       0.1533   0.0000
  107  142   1       0.3110   0.4805
  107  144   1       0.1533   0.0000
  107  146   1       0.3093   0.4882
  107  148   1       0.1533   0.0000
  107  150   1       0.3116   0.5964
  107  152   1       0.1533   0.0000
  107  154   1       0.1533   0.0000
  107  156   1       0.1533   0.0000
  107  158   1       0.3233   0.4037
  107  160   1       0.2858   0.1529
  107  162   1       0.3233   0.3579
  107  164   1       0.3013   0.5593
  107  166   1       0.3158   0.5033
  107  168   1       0.2769   0.1529
  107  170   1       0.3233   0.3579
  107  172   1       0.2833   0.1495
  107  176   1       0.3158   0.5033
  107  178   1       0.2513   0.1529
  107  180   1       0.3158   0.5033
  107  182   1       0.2068   0.1529
  109    0   1       0.1500   0.0000
  109    2   1       0.3200   0.3218
  109    4   1       0.3200   0.3218
  109    6   1       0.3200   0.3218
  109    8   1       0.3200   0.3218
  109   10   1       0.3200   0.3218
  109   12   1       0.3200   0.3218
  109   14   1       0.3200   0.3218
  109   16   1       0.3200   0.3218
  109   18   1       0.3200   0.3218
  109   20   1       0.3200   0.3218
  109   22   1       0.3200   0.3218
  109   24   1       0.3200   0.3629
  109   26   1       0.3200   0.3629
  109   28   1       0.3200   0.3629
  109   30   1       0.3200   0.3629
  109   32   1       0.3200   0.3629
  109   34   1       0.3200   0.3629
  109   36   1       0.3200   0.3629
  109   38   1       0.3200   0.3218
  109   40   1       0.3200   0.3218
  109   42   1       0.3200   0.3218
  109   44   1       0.3026   0.7440
  109   46   1       0.3059   0.2710
  109   48   1       0.2035   0.1375
  109   50   1       0.2035   0.1375
  109   52   1       0.2825   0.1375
  109   54   1       0.2736   0.1375
  109   56   1       0.2647   0.1375
  109   58   1       0.2558   0.1375
  109   60   1       0.2800   0.1344
  109   62   1       0.2755   0.1344
  109   64   1       0.2711   0.1344
  109   66   1       0.1500   0.0000
  109   68   1       0.2035   0.1375
  109   70   1       0.1500   0.0000
  109   72   1       0.2480   0.1375
  109   74   1       0.3594   0.6939
  109   76   1       0.3701   0.3470
  109   78   1       0.3164   0.0577
  109   80   1       0.5954   0.3470
  109   82   1       0.2206   1.0378
  109   84   1       0.3125   0.4524
  109   86   1       0.3125   0.4524
  109   88   1       0.3125   0.4524
  109   90   1       0.3125   0.4524
  109   92   1       0.3125   0.4524
  109   94   1       0.3125   0.4524
  109   96   1       0.3125   0.4524
  109   98   1       0.2980   0.5028
  109  100   1       0.2980   0.5028
  109  102   1       0.3075   0.4279
  109  104   1       0.3033   0.5033
  109  106   1       0.3033   0.5033
  109  108   1       0.3000   0.4524
  109  110   1       0.2980   0.5028
  109  112   1       0.3371   0.4907
  109  114   1       0.3282   0.5486
  109  116   1       0.3282   0.5486
  109  118   1       0.3200   0.3218
  109  120   1       0.1500   0.0000
  109  122   1       0.3868   0.0199
  109  124   1       0.4133   0.0143
  109  132   1       0.2513   0.1484
  109  134   1       0.2480   0.1227
  109  136   1       0.1500   0.0000
  109  138   1       0.3082   0.4426
  109  140   1       0.1500   0.0000
  109  142   1       0.3077   0.4320
  109  144   1       0.1500   0.0000
  109  146   1       0.3060   0.4389
  109  148   1       0.1500   0.0000
  109  150   1       0.3083   0.5361
  109  152   1       0.1500   0.0000
  109  154   1       0.1500   0.0000
  109  156   1       0.1500   0.0000
  109  158   1       0.3200   0.3629
  109  160   1       0.2825   0.1375
  109  162   1       0.3200   0.3218
  109  164   1       0.2980   0.5028
  109  166   1       0.3125   0.4524
  109  168   1       0.2736   0.1375
  109  170   1       0.3200   0.3218
  109  172   1       0.2800   0.1344
  109  176   1       0.3125   0.4524
  109  178   1       0.2480   0.1375
  109  180   1       0.3125   0.4524
  109  182   1       0.2035   0.1375
  111    0   1       0.1480   0.0000
  111    2   1       0.3180   0.3576
  111    4   1       0.3180   0.3576
  111    6   1       0.3180   0.3576
  111    8   1       0.3180   0.3576
  111   10   1       0.3180   0.3576
  111   12   1       0.3180   0.3576
  111   14   1       0.3180   0.3576
  111   16   1       0.3180   0.3576
  111   18   1       0.3180   0.3576
  111   20   1       0.3180   0.3576
  111   22   1       0.3180   0.3576
  111   24   1       0.3180   0.4033
  111   26   1       0.3180   0.4033
  111   28   1       0.3180   0.4033
  111   30   1       0.3180   0.4033
  111   32   1       0.3180   0.4033
  111   34   1       0.3180   0.4033
  111   36   1       0.3180   0.4033
  111   38   1       0.3180   0.3576
  111   40   1       0.3180   0.3576
  111   42   1       0.3180   0.3576
  111   44   1       0.3006   0.8269
  111   46   1       0.3039   0.3012
  111   48   1       0.2014   0.1528
  111   50   1       0.2014   0.1528
  111   52   1       0.2805   0.1528
  111   54   1       0.2716   0.1528
  111   56   1       0.2627   0.1528
  111   58   1       0.2537   0.1528
  111   60   1       0.2780   0.1493
  111   62   1       0.2735   0.1493
  111   64   1       0.2691   0.1493
  111   66   1       0.1480   0.0000
  111   68   1       0.2014   0.1528
  111   70   1       0.1480   0.0000
  111   72   1       0.2460   0.1528
  111   74   1       0.3574   0.7712
  111   76   1       0.3680   0.3856
  111   78   1       0.3144   0.0642
  111   80   1       0.5934   0.3856
  111   82   1       0.2186   1.1534
  111   84   1       0.3105   0.5028
  111   86   1       0.3105   0.5028
  111   88   1       0.3105   0.5028
  111   90   1       0.3105   0.5028
  111   92   1       0.3105   0.5028
  111   94   1       0.3105   0.5028
  111   96   1       0.3105   0.5028
  111   98   1       0.2960   0.5588
  111  100   1       0.2960   0.5588
  111  102   1       0.3055   0.4756
  111  104   1       0.3013   0.5593
  111  106   1       0.3013   0.5593
  111  108   1       0.2980   0.5028
  111  110   1       0.2960   0.5588
  111  112   1       0.3351   0.5453
  111  114   1       0.3262   0.6097
  111  116   1       0.3262   0.6097
  111  118   1       0.3180   0.3576
  111  120   1       0.1480   0.0000
  111  122   1       0.3848   0.0221
  111  124   1       0.4113   0.0159
  111  132   1       0.2493   0.1650
  111  134   1       0.2460   0.1363
  111  136   1       0.1480   0.0000
  111  138   1       0.3062   0.4919
  111  140   1       0.1480   0.0000
  111  142   1       0.3057   0.4801
  111  144   1       0.1480   0.0000
  111  146   1       0.3040   0.4878
  111  148   1       0.1480   0.0000
  111  150   1       0.3062   0.5959
  111  152   1       0.1480   0.0000
  111  154   1       0.1480   0.0000
  111  156   1       0.1480   0.0000
  111  158   1       0.3180   0.4033
  111  160   1       0.2805   0.1528
  111  162   1       0.3180   0.3576
  111  164   1       0.2960   0.5588
  111  166   1       0.3105   0.5028
  111  168   1       0.2716   0.1528
  111  170   1       0.3180   0.3576
  111  172   1       0.2780   0.1493
  111  176   1       0.3105   0.5028
  111  178   1       0.2460   0.1528
  111  180   1       0.3105   0.5028
  111  182   1       0.2014   0.1528
  113    0   1       0.1871   0.0000
  113    2   1       0.3571   0.3490
  113    4   1       0.3571   0.3490
  113    6   1       0.3571   0.3490
  113    8   1       0.3571   0.3490
  113   10   1       0.3571   0.3490
  113   12   1       0.3571   0.3490
  113   14   1       0.3571   0.3490
  113   16   1       0.3571   0.3490
  113   18   1       0.3571   0.3490
  113   20   1       0.3571   0.3490
  113   22   1       0.3571   0.3490
  113   24   1       0.3571   0.3936
  113   26   1       0.3571   0.3936
  113   28   1       0.3571   0.3936
  113   30   1       0.3571   0.3936
  113   32   1       0.3571   0.3936
  113   34   1       0.3571   0.3936
  113   36   1       0.3571   0.3936
  113   38   1       0.3571   0.3490
  113   40   1       0.3571   0.3490
  113   42   1       0.3571   0.3490
  113   44   1       0.3397   0.8069
  113   46   1       0.3430   0.2939
  113   48   1       0.2405   0.1491
  113   50   1       0.2405   0.1491
  113   52   1       0.3196   0.1491
  113   54   1       0.3107   0.1491
  113   56   1       0.3017   0.1491
  113   58   1       0.2928   0.1491
  113   60   1       0.3171   0.1458
  113   62   1       0.3126   0.1458
  113   64   1       0.3082   0.1458
  113   66   1       0.1871   0.0000
  113   68   1       0.2405   0.1491
  113   70   1       0.1871   0.0000
  113   72   1       0.2851   0.1491
  113   74   1       0.3964   0.7527
  113   76   1       0.4071   0.3763
  113   78   1       0.3535   0.0626
  113   80   1       0.6325   0.3763
  113   82   1       0.2577   1.1256
  113   84   1       0.3496   0.4907
  113   86   1       0.3496   0.4907
  113   88   1       0.3496   0.4907
  113   90   1       0.3496   0.4907
  113   92   1       0.3496   0.4907
  113   94   1       0.3496   0.4907
  113   96   1       0.3496   0.4907
  113   98   1       0.3351   0.5453
  113  100   1       0.3351   0.5453
  113  102   1       0.3446   0.4641
  113  104   1       0.3404   0.5459
  113  106   1       0.3404   0.5459
  113  108   1       0.3371   0.4907
  113  110   1       0.3351   0.5453
  113  112   1       0.3742   0.5322
  113  114   1       0.3653   0.5950
  113  116   1       0.3653   0.5950
  113  118   1       0.3571   0.3490
  113  120   1       0.1871   0.0000
  113  122   1       0.4239   0.0216
  113  124   1       0.4504   0.0155
  113  132   1       0.2884   0.1610
  113  134   1       0.2851   0.1331
  113  136   1       0.1871   0.0000
  113  138   1       0.3453   0.4801
  113  140   1       0.1871   0.0000
  113  142   1       0.3448   0.4685
  113  144   1       0.1871   0.0000
  113  146   1       0.3431   0.4760
  113  148   1       0.1871   0.0000
  113  150   1       0.3453   0.5815
  113  152   1       0.1871   0.0000
  113  154   1       0.1871   0.0000
  113  156   1       0.1871   0.0000
  113  158   1       0.3571   0.3936
  113  160   1       0.3196   0.1491
  113  162   1       0.3571   0.3490
  113  164   1       0.3351   0.5453
  113  166   1       0.3496   0.4907
  113  168   1       0.3107   0.1491
  113  170   1       0.3571   0.3490
  113  172   1       0.3171   0.1458
  113  176   1       0.3496   0.4907
  113  178   1       0.2851   0.1491
  113  180   1       0.3496   0.4907
  113  182   1       0.2405   0.1491
  115    0   1       0.1782   0.0000
  115    2   1       0.3482   0.3902
  115    4   1       0.3482   0.3902
  115    6   1       0.3482   0.3902
  115    8   1       0.3482   0.3902
  115   10   1       0.3482   0.3902
  115   12   1       0.3482   0.3902
  115   14   1       0.3482   0.3902
  115   16   1       0.3482   0.3902
  115   18   1       0.3482   0.3902
  115   20   1       0.3482   0.3902
  115   22   1       0.3482   0.3902
  115   24   1       0.3482   0.4401
  115   26   1       0.3482   0.4401
  115   28   1       0.3482   0.4401
  115   30   1       0.3482   0.4401
  115   32   1       0.3482   0.4401
  115   34   1       0.3482   0.4401
  115   36   1       0.3482   0.4401
  115   38   1       0.3482   0.3902
  115   40   1       0.3482   0.3902
  115   42   1       0.3482   0.3902
  115   44   1       0.3308   0.9022
  115   46   1       0.3341   0.3286
  115   48   1       0.2316   0.1667
  115   50   1       0.2316   0.1667
  115   52   1       0.3107   0.1667
  115   54   1       0.3017   0.1667
  115   56   1       0.2928   0.1667
  115   58   1       0.2839   0.1667
  115   60   1       0.3082   0.1630
  115   62   1       0.3037   0.1630
  115   64   1       0.2993   0.1630
  115   66   1       0.1782   0.0000
  115   68   1       0.2316   0.1667
  115   70   1       0.1782   0.0000
  115   72   1       0.2762   0.1667
  115   74   1       0.3875   0.8415
  115   76   1       0.3982   0.4207
  115   78   1       0.3446   0.0700
  115   80   1       0.6236   0.4207
  115   82   1       0.2488   1.2585
  115   84   1       0.3407   0.5486
  115   86   1       0.3407   0.5486
  115   88   1       0.3407   0.5486
  115   90   1       0.3407   0.5486
  115   92   1       0.3407   0.5486
  115   94   1       0.3407   0.5486
  115   96   1       0.3407   0.5486
  115   98   1       0.3262   0.6097
  115  100   1       0.3262   0.6097
  115  102   1       0.3357   0.5189
  115  104   1       0.3315   0.6103
  115  106   1       0.3315   0.6103
  115  108   1       0.3282   0.5486
  115  110   1       0.3262   0.6097
  115  112   1       0.3653   0.5950
  115  114   1       0.3564   0.6653
  115  116   1       0.3564   0.6653
  115  118   1       0.3482   0.3902
  115  120   1       0.1782   0.0000
  115  122   1       0.4150   0.0241
  115  124   1       0.4415   0.0173
  115  132   1       0.2795   0.1800
  115  134   1       0.2762   0.1488
  115  136   1       0.1782   0.0000
  115  138   1       0.3364   0.5368
  115  140   1       0.1782   0.0000
  115  142   1       0.3359   0.5238
  115  144   1       0.1782   0.0000
  115  146   1       0.3342   0.5322
  115  148   1       0.1782   0.0000
  115  150   1       0.3364   0.6501
  115  152   1       0.1782   0.0000
  115  154   1       0.1782   0.0000
  115  156   1       0.1782   0.0000
  115  158   1       0.3482   0.4401
  115  160   1       0.3107   0.1667
  115  162   1       0.3482   0.3902
  115  164   1       0.3262   0.6097
  115  166   1       0.3407   0.5486
  115  168   1       0.3017   0.1667
  115  170   1       0.3482   0.3902
  115  172   1       0.3082   0.1630
  115  176   1       0.3407   0.5486
  115  178   1       0.2762   0.1667
  115  180   1       0.3407   0.5486
  115  182   1       0.2316   0.1667
  117    0   1       0.1782   0.0000
  117    2   1       0.3482   0.3902
  117    4   1       0.3482   0.3902
  117    6   1       0.3482   0.3902
  117    8   1       0.3482   0.3902
  117   10   1       0.3482   0.3902
  117   12   1       0.3482   0.3902
  117   14   1       0.3482   0.3902
  117   16   1       0.3482   0.3902
  117   18   1       0.3482   0.3902
  117   20   1       0.3482   0.3902
  117   22   1       0.3482   0.3902
  117   24   1       0.3482   0.4401
  117   26   1       0.3482   0.4401
  117   28   1       0.3482   0.4401
  117   30   1       0.3482   0.4401
  117   32   1       0.3482   0.4401
  117   34   1       0.3482   0.4401
  117   36   1       0.3482   0.4401
  117   38   1       0.3482   0.3902
  117   40   1       0.3482   0.3902
  117   42   1       0.3482   0.3902
  117   44   1       0.3308   0.9022
  117   46   1       0.3341   0.3286
  117   48   1       0.2316   0.1667
  117   50   1       0.2316   0.1667
  117   52   1       0.3107   0.1667
  117   54   1       0.3017   0.1667
  117   56   1       0.2928   0.1667
  117   58   1       0.2839   0.1667
  117   60   1       0.3082   0.1630
  117   62   1       0.3037   0.1630
  117   64   1       0.2993   0.1630
  117   66   1       0.1782   0.0000
  117   68   1       0.2316   0.1667
  117   70   1       0.1782   0.0000
  117   72   1       0.2762   0.1667
  117   74   1       0.3875   0.8415
  117   76   1       0.3982   0.4207
  117   78   1       0.3446   0.0700
  117   80   1       0.6236   0.4207
  117   82   1       0.2488   1.2585
  117   84   1       0.3407   0.5486
  117   86   1       0.3407   0.5486
  117   88   1       0.3407   0.5486
  117   90   1       0.3407   0.5486
  117   92   1       0.3407   0.5486
  117   94   1       0.3407   0.5486
  117   96   1       0.3407   0.5486
  117   98   1       0.3262   0.6097
  117  100   1       0.3262   0.6097
  117  102   1       0.3357   0.5189
  117  104   1       0.3315   0.6103
  117  106   1       0.3315   0.6103
  117  108   1       0.3282   0.5486
  117  110   1       0.3262   0.6097
  117  112   1       0.3653   0.5950
  117  114   1       0.3564   0.6653
  117  116   1       0.3564   0.6653
  117  118   1       0.3482   0.3902
  117  120   1       0.1782   0.0000
  117  122   1       0.4150   0.0241
  117  124   1       0.4415   0.0173
  117  132   1       0.2795   0.1800
  117  134   1       0.2762   0.1488
  117  136   1       0.1782   0.0000
  117  138   1       0.3364   0.5368
  117  140   1       0.1782   0.0000
  117  142   1       0.3359   0.5238
  117  144   1       0.1782   0.0000
  117  146   1       0.3342   0.5322
  117  148   1       0.1782   0.0000
  117  150   1       0.3364   0.6501
  117  152   1       0.1782   0.0000
  117  154   1       0.1782   0.0000
  117  156   1       0.1782   0.0000
  117  158   1       0.3482   0.4401
  117  160   1       0.3107   0.1667
  117  162   1       0.3482   0.3902
  117  164   1       0.3262   0.6097
  117  166   1       0.3407   0.5486
  117  168   1       0.3017   0.1667
  117  170   1       0.3482   0.3902
  117  172   1       0.3082   0.1630
  117  176   1       0.3407   0.5486
  117  178   1       0.2762   0.1667
  117  180   1       0.3407   0.5486
  117  182   1       0.2316   0.1667
  119    0   1       0.1700   0.0000
  119    2   1       0.3400   0.2288
  119    4   1       0.3400   0.2288
  119    6   1       0.3400   0.2288
  119    8   1       0.3400   0.2288
  119   10   1       0.3400   0.2288
  119   12   1       0.3400   0.2288
  119   14   1       0.3400   0.2288
  119   16   1       0.3400   0.2288
  119   18   1       0.3400   0.2288
  119   20   1       0.3400   0.2288
  119   22   1       0.3400   0.2288
  119   24   1       0.3400   0.2581
  119   26   1       0.3400   0.2581
  119   28   1       0.3400   0.2581
  119   30   1       0.3400   0.2581
  119   32   1       0.3400   0.2581
  119   34   1       0.3400   0.2581
  119   36   1       0.3400   0.2581
  119   38   1       0.3400   0.2288
  119   40   1       0.3400   0.2288
  119   42   1       0.3400   0.2288
  119   44   1       0.3226   0.5291
  119   46   1       0.3259   0.1927
  119   48   1       0.2234   0.0978
  119   50   1       0.2234   0.0978
  119   52   1       0.3025   0.0978
  119   54   1       0.2936   0.0978
  119   56   1       0.2846   0.0978
  119   58   1       0.2757   0.0978
  119   60   1       0.3000   0.0956
  119   62   1       0.2955   0.0956
  119   64   1       0.2911   0.0956
  119   66   1       0.1700   0.0000
  119   68   1       0.2234   0.0978
  119   70   1       0.1700   0.0000
  119   72   1       0.2680   0.0978
  119   74   1       0.3793   0.4935
  119   76   1       0.3900   0.2468
  119   78   1       0.3364   0.0411
  119   80   1       0.6154   0.2468
  119   82   1       0.2406   0.7381
  119   84   1       0.3325   0.3218
  119   86   1       0.3325   0.3218
  119   88   1       0.3325   0.3218
  119   90   1       0.3325   0.3218
  119   92   1       0.3325   0.3218
  119   94   1       0.3325   0.3218
  119   96   1       0.3325   0.3218
  119   98   1       0.3180   0.3576
  119  100   1       0.3180   0.3576
  119  102   1       0.3275   0.3043
  119  104   1       0.3233   0.3579
  119  106   1       0.3233   0.3579
  119  108   1       0.3200   0.3218
  119  110   1       0.3180   0.3576
  119  112   1       0.3571   0.3490
  119  114   1       0.3482   0.3902
  119  116   1       0.3482   0.3902
  119  118   1       0.3400   0.2288
  119  120   1       0.1700   0.0000
  119  122   1       0.4068   0.0141
  119  124   1       0.4333   0.0102
  119  132   1       0.2713   0.1056
  119  134   1       0.2680   0.0872
  119  136   1       0.1700   0.0000
  119  138   1       0.3282   0.3148
  119  140   1       0.1700   0.0000
  119  142   1       0.3277   0.3072
  119  144   1       0.1700   0.0000
  119  146   1       0.3260   0.3121
  119  148   1       0.1700   0.0000
  119  150   1       0.3282   0.3813
  119  152   1       0.1700   0.0000
  119  154   1       0.1700   0.0000
  119  156   1       0.1700   0.0000
  119  158   1       0.3400   0.2581
  119  160   1       0.3025   0.0978
  119  162   1       0.3400   0.2288
  119  164   1       0.3180   0.3576
  119  166   1       0.3325   0.3218
  119  168   1       0.2936   0.0978
  119  170   1       0.3400   0.2288
  119  172   1       0.3000   0.0956
  119  176   1       0.3325   0.3218
  119  178   1       0.2680   0.0978
  119  180   1       0.3325   0.3218
  119  182   1       0.2234   0.0978
  121    0   1       0.0000   0.0000
  121    2   1       0.1700   0.0000
  121    4   1       0.1700   0.0000
  121    6   1       0.1700   0.0000
  121    8   1       0.1700   0.0000
  121   10   1       0.1700   0.0000
  121   12   1       0.1700   0.0000
  121   14   1       0.1700   0.0000
  121   16   1       0.1700   0.0000
  121   18   1       0.1700   0.0000
  121   20   1       0.1700   0.0000
  121   22   1       0.1700   0.0000
  121   24   1       0.1700   0.0000
  121   26   1       0.1700   0.0000
  121   28   1       0.1700   0.0000
  121   30   1       0.1700   0.0000
  121   32   1       0.1700   0.0000
  121   34   1       0.1700   0.0000
  121   36   1       0.1700   0.0000
  121   38   1       0.1700   0.0000
  121   40   1       0.1700   0.0000
  121   42   1       0.1700   0.0000
  121   44   1       0.1526   0.0000
  121   46   1       0.1559   0.0000
  121   48   1       0.0535   0.0000
  121   50   1       0.0535   0.0000
  121   52   1       0.1325   0.0000
  121   54   1       0.1236   0.0000
  121   56   1       0.1147   0.0000
  121   58   1       0.1057   0.0000
  121   60   1       0.1300   0.0000
  121   62   1       0.1255   0.0000
  121   64   1       0.1211   0.0000
  121   66   1       0.0000   0.0000
  121   68   1       0.0535   0.0000
  121   70   1       0.0000   0.0000
  121   72   1       0.0980   0.0000
  121   74   1       0.2094   0.0000
  121   76   1       0.2201   0.0000
  121   78   1       0.1664   0.0000
  121   80   1       0.4454   0.0000
  121   82   1       0.0706   0.0000
  121   84   1       0.1625   0.0000
  121   86   1       0.1625   0.0000
  121   88   1       0.1625   0.0000
  121   90   1       0.1625   0.0000
  121   92   1       0.1625   0.0000
  121   94   1       0.1625   0.0000
  121   96   1       0.1625   0.0000
  121   98   1       0.1480   0.0000
  121  100   1       0.1480   0.0000
  121  102   1       0.1575   0.0000
  121  104   1       0.1533   0.0000
  121  106   1       0.1533   0.0000
  121  108   1       0.1500   0.0000
  121  110   1       0.1480   0.0000
  121  112   1       0.1871   0.0000
  121  114   1       0.1782   0.0000
  121  116   1       0.1782   0.0000
  121  118   1       0.1700   0.0000
  121  120   1       0.0000   0.0000
  121  122   1       0.2368   0.0000
  121  124   1       0.2633   0.0000
  121  132   1       0.1013   0.0000
  121  134   1       0.0980   0.0000
  121  136   1       0.0000   0.0000
  121  138   1       0.1582   0.0000
  121  140   1       0.0000   0.0000
  121  142   1       0.1577   0.0000
  121  144   1       0.0000   0.0000
  121  146   1       0.1560   0.0000
  121  148   1       0.0000   0.0000
  121  150   1       0.1583   0.0000
  121  152   1       0.0000   0.0000
  121  154   1       0.0000   0.0000
  121  156   1       0.0000   0.0000
  121  158   1       0.1700   0.0000
  121  160   1       0.1325   0.0000
  121  162   1       0.1700   0.0000
  121  164   1       0.1480   0.0000
  121  166   1       0.1625   0.0000
  121  168   1       0.1236   0.0000
  121  170   1       0.1700   0.0000
  121  172   1       0.1300   0.0000
  121  176   1       0.1625   0.0000
  121  178   1       0.0980   0.0000
  121  180   1       0.1625   0.0000
  121  182   1       0.0535   0.0000
  123    0   1       0.2368   0.0000
  123    2   1       0.4068   0.0141
  123    4   1       0.4068   0.0141
  123    6   1       0.4068   0.0141
  123    8   1       0.4068   0.0141
  123   10   1       0.4068   0.0141
  123   12   1       0.4068   0.0141
  123   14   1       0.4068   0.0141
  123   16   1       0.4068   0.0141
  123   18   1       0.4068   0.0141
  123   20   1       0.4068   0.0141
  123   22   1       0.4068   0.0141
  123   24   1       0.4068   0.0159
  123   26   1       0.4068   0.0159
  123   28   1       0.4068   0.0159
  123   30   1       0.4068   0.0159
  123   32   1       0.4068   0.0159
  123   34   1       0.4068   0.0159
  123   36   1       0.4068   0.0159
  123   38   1       0.4068   0.0141
  123   40   1       0.4068   0.0141
  123   42   1       0.4068   0.0141
  123   44   1       0.3894   0.0327
  123   46   1       0.3927   0.0119
  123   48   1       0.2903   0.0060
  123   50   1       0.2903   0.0060
  123   52   1       0.3693   0.0060
  123   54   1       0.3604   0.0060
  123   56   1       0.3515   0.0060
  123   58   1       0.3426   0.0060
  123   60   1       0.3668   0.0059
  123   62   1       0.3623   0.0059
  123   64   1       0.3579   0.0059
  123   66   1       0.2368   0.0000
  123   68   1       0.2903   0.0060
  123   70   1       0.2368   0.0000
  123   72   1       0.3348   0.0060
  123   74   1       0.4462   0.0305
  123   76   1       0.4569   0.0152
  123   78   1       0.4032   0.0025
  123   80   1       0.6823   0.0152
  123   82   1       0.3074   0.0456
  123   84   1       0.3993   0.0199
  123   86   1       0.3993   0.0199
  123   88   1       0.3993   0.0199
  123   90   1       0.3993   0.0199
  123   92   1       0.3993   0.0199
  123   94   1       0.3993   0.0199
  123   96   1       0.3993   0.0199
  123   98   1       0.3848   0.0221
  123  100   1       0.3848   0.0221
  123  102   1       0.3943   0.0188
  123  104   1       0.3901   0.0221
  123  106   1       0.3901   0.0221
  123  108   1       0.3868   0.0199
  123  110   1       0.3848   0.0221
  123  112   1       0.4239   0.0216
  123  114   1       0.4150   0.0241
  123  116   1       0.4150   0.0241
  123  118   1       0.4068   0.0141
  123  120   1       0.2368   0.0000
  123  122   1       0.4736   0.0009
  123  124   1       0.5002   0.0006
  123  132   1       0.3381   0.0065
  123  134   1       0.3348   0.0054
  123  136   1       0.2368   0.0000
  123  138   1       0.3950   0.0194
  123  140   1       0.2368   0.0000
  123  142   1       0.3945   0.0190
  123  144   1       0.2368   0.0000
  123  146   1       0.3928   0.0193
  123  148   1       0.2368   0.0000
  123  150   1       0.3951   0.0235
  123  152   1       0.2368   0.0000
  123  154   1       0.2368   0.0000
  123  156   1       0.2368   0.0000
  123  158   1       0.4068   0.0159
  123  160   1       0.3693   0.0060
  123  162   1       0.4068   0.0141
  123  164   1       0.3848   0.0221
  123  166   1       0.3993   0.0199
  123  168   1       0.3604   0.0060
  123  170   1       0.4068   0.0141
  123  172   1       0.3668   0.0059
  123  176   1       0.3993   0.0199
  123  178   1       0.3348   0.0060
  123  180   1       0.3993   0.0199
  123  182   1       0.2903   0.0060
  125    0   1       0.2633   0.0000
  125    2   1       0.4333   0.0102
  125    4   1       0.4333   0.0102
  125    6   1       0.4333   0.0102
  125    8   1       0.4333   0.0102
  125   10   1       0.4333   0.0102
  125   12   1       0.4333   0.0102
  125   14   1       0.4333   0.0102
  125   16   1       0.4333   0.0102
  125   18   1       0.4333   0.0102
  125   20   1       0.4333   0.0102
  125   22   1       0.4333   0.0102
  125   24   1       0.4333   0.0115
  125   26   1       0.4333   0.0115
  125   28   1       0.4333   0.0115
  125   30   1       0.4333   0.0115
  125   32   1       0.4333   0.0115
  125   34   1       0.4333   0.0115
  125   36   1       0.4333   0.0115
  125   38   1       0.4333   0.0102
  125   40   1       0.4333   0.0102
  125   42   1       0.4333   0.0102
  125   44   1       0.4160   0.0235
  125   46   1       0.4193   0.0086
  125   48   1       0.3168   0.0043
  125   50   1       0.3168   0.0043
  125   52   1       0.3958   0.0043
  125   54   1       0.3869   0.0043
  125   56   1       0.3780   0.0043
  125   58   1       0.3691   0.0043
  125   60   1       0.3933   0.0042
  125   62   1       0.3889   0.0042
  125   64   1       0.3844   0.0042
  125   66   1       0.2633   0.0000
  125   68   1       0.3168   0.0043
  125   70   1       0.2633   0.0000
  125   72   1       0.3613   0.0043
  125   74   1       0.4727   0.0219
  125   76   1       0.4834   0.0110
  125   78   1       0.4298   0.0018
  125   80   1       0.7088   0.0110
  125   82   1       0.3340   0.0328
  125   84   1       0.4258   0.0143
  125   86   1       0.4258   0.0143
  125   88   1       0.4258   0.0143
  125   90   1       0.4258   0.0143
  125   92   1       0.4258   0.0143
  125   94   1       0.4258   0.0143
  125   96   1       0.4258   0.0143
  125   98   1       0.4113   0.0159
  125  100   1       0.4113   0.0159
  125  102   1       0.4209   0.0135
  125  104   1       0.4167   0.0159
  125  106   1       0.4167   0.0159
  125  108   1       0.4133   0.0143
  125  110   1       0.4113   0.0159
  125  112   1       0.4504   0.0155
  125  114   1       0.4415   0.0173
  125  116   1       0.4415   0.0173
  125  118   1       0.4333   0.0102
  125  120   1       0.2633   0.0000
  125  122   1       0.5002   0.0006
  125  124   1       0.5267   0.0005
  125  132   1       0.3646   0.0047
  125  134   1       0.3613   0.0039
  125  136   1       0.2633   0.0000
  125  138   1       0.4216   0.0140
  125  140   1       0.2633   0.0000
  125  142   1       0.4210   0.0137
  125  144   1       0.2633   0.0000
  125  146   1       0.4193   0.0139
  125  148   1       0.2633   0.0000
  125  150   1       0.4216   0.0170
  125  152   1       0.2633   0.0000
  125  154   1       0.2633   0.0000
  125  156   1       0.2633   0.0000
  125  158   1       0.4333   0.0115
  125  160   1       0.3958   0.0043
  125  162   1       0.4333   0.0102
  125  164   1       0.4113   0.0159
  125  166   1       0.4258   0.0143
  125  168   1       0.3869   0.0043
  125  170   1       0.4333   0.0102
  125  172   1       0.3933   0.0042
  125  176   1       0.4258   0.0143
  125  178   1       0.3613   0.0043
  125  180   1       0.4258   0.0143
  125  182   1       0.3168   0.0043
  126    0   1       0.3025   0.0000
  126    2   1       0.4724   0.0090
  126    4   1       0.4724   0.0090
  126    6   1       0.4724   0.0090
  126    8   1       0.4724   0.0090
  126   10   1       0.4724   0.0090
  126   12   1       0.4724   0.0090
  126   14   1       0.4724   0.0090
  126   16   1       0.4724   0.0090
  126   18   1       0.4724   0.0090
  126   20   1       0.4724   0.0090
  126   22   1       0.4724   0.0090
  126   24   1       0.4724   0.0102
  126   26   1       0.4724   0.0102
  126   28   1       0.4724   0.0102
  126   30   1       0.4724   0.0102
  126   32   1       0.4724   0.0102
  126   34   1       0.4724   0.0102
  126   36   1       0.4724   0.0102
  126   38   1       0.4724   0.0090
  126   40   1       0.4724   0.0090
  126   42   1       0.4724   0.0090
  126   44   1       0.4551   0.0209
  126   46   1       0.4584   0.0076
  126   48   1       0.3559   0.0039
  126   50   1       0.3559   0.0039
  126   52   1       0.4349   0.0039
  126   54   1       0.4260   0.0039
  126   56   1       0.4171   0.0039
  126   58   1       0.4082   0.0039
  126   60   1       0.4324   0.0038
  126   62   1       0.4280   0.0038
  126   64   1       0.4235   0.0038
  126   66   1       0.3025   0.0000
  126   68   1       0.3559   0.0039
  126   70   1       0.3025   0.0000
  126   72   1       0.4005   0.0039
  126   74   1       0.5118   0.0195
  126   76   1       0.5225   0.0098
  126   78   1       0.4689   0.0016
  126   80   1       0.7479   0.0098
  126   82   1       0.3731   0.0292
  126   84   1       0.4650   0.0127
  126   86   1       0.4650   0.0127
  126   88   1       0.4650   0.0127
  126   90   1       0.4650   0.0127
  126   92   1       0.4650   0.0127
  126   94   1       0.4650   0.0127
  126   96   1       0.4650   0.0127
  126   98   1       0.4505   0.0141
  126  100   1       0.4505   0.0141
  126  102   1       0.4600   0.0120
  126  104   1       0.4558   0.0141
  126  106   1       0.4558   0.0141
  126  108   1       0.4525   0.0127
  126  110   1       0.4505   0.0141
  126  112   1       0.4895   0.0138
  126  114   1       0.4806   0.0154
  126  116   1       0.4806   0.0154
  126  118   1       0.4724   0.0090
  126  120   1       0.3025   0.0000
  126  122   1       0.5393   0.0006
  126  124   1       0.5658   0.0004
  126  132   1       0.4038   0.0042
  126  134   1       0.4005   0.0034
  126  136   1       0.3025   0.0000
  126  138   1       0.4607   0.0124
  126  140   1       0.3025   0.0000
  126  142   1       0.4601   0.0121
  126  144   1       0.3025   0.0000
  126  146   1       0.4585   0.0123
  126  148   1       0.3025   0.0000
  126  150   1       0.4607   0.0151
  126  152   1       0.3025   0.0000
  126  154   1       0.3025   0.0000
  126  156   1       0.3025   0.0000
  126  158   1       0.4724   0.0102
  126  160   1       0.4349   0.0039
  126  162   1       0.4724   0.0090
  126  164   1       0.4505   0.0141
  126  166   1       0.4650   0.0127
  126  168   1       0.4260   0.0039
  126  170   1       0.4724   0.0090
  126  172   1       0.4324   0.0038
  126  176   1       0.4650   0.0127
  126  178   1       0.4005   0.0039
  126  180   1       0.4650   0.0127
  126  182   1       0.3559   0.0039
  127    0   1       0.3025   0.0000
  127    2   1       0.4724   0.0070
  127    4   1       0.4724   0.0070
  127    6   1       0.4724   0.0070
  127    8   1       0.4724   0.0070
  127   10   1       0.4724   0.0070
  127   12   1       0.4724   0.0070
  127   14   1       0.4724   0.0070
  127   16   1       0.4724   0.0070
  127   18   1       0.4724   0.0070
  127   20   1       0.4724   0.0070
  127   22   1       0.4724   0.0070
  127   24   1       0.4724   0.0079
  127   26   1       0.4724   0.0079
  127   28   1       0.4724   0.0079
  127   30   1       0.4724   0.0079
  127   32   1       0.4724   0.0079
  127   34   1       0.4724   0.0079
  127   36   1       0.4724   0.0079
  127   38   1       0.4724   0.0070
  127   40   1       0.4724   0.0070
  127   42   1       0.4724   0.0070
  127   44   1       0.4551   0.0162
  127   46   1       0.4584   0.0059
  127   48   1       0.3559   0.0030
  127   50   1       0.3559   0.0030
  127   52   1       0.4349   0.0030
  127   54   1       0.4260   0.0030
  127   56   1       0.4171   0.0030
  127   58   1       0.4082   0.0030
  127   60   1       0.4324   0.0029
  127   62   1       0.4280   0.0029
  127   64   1       0.4235   0.0029
  127   66   1       0.3025   0.0000
  127   68   1       0.3559   0.0030
  127   70   1       0.3025   0.0000
  127   72   1       0.4005   0.0030
  127   74   1       0.5118   0.0151
  127   76   1       0.5225   0.0076
  127   78   1       0.4689   0.0013
  127   80   1       0.7479   0.0076
  127   82   1       0.3731   0.0226
  127   84   1       0.4650   0.0099
  127   86   1       0.4650   0.0099
  127   88   1       0.4650   0.0099
  127   90   1       0.4650   0.0099
  127   92   1       0.4650   0.0099
  127   94   1       0.4650   0.0099
  127   96   1       0.4650   0.0099
  127   98   1       0.4505   0.0109
  127  100   1       0.4505   0.0109
  127  102   1       0.4600   0.0093
  127  104   1       0.4558   0.0110
  127  106   1       0.4558   0.0110
  127  108   1       0.4525   0.0099
  127  110   1       0.4505   0.0109
  127  112   1       0.4895   0.0107
  127  114   1       0.4806   0.0119
  127  116   1       0.4806   0.0119
  127  118   1       0.4724   0.0070
  127  120   1       0.3025   0.0000
  127  122   1       0.5393   0.0004
  127  124   1       0.5658   0.0003
  127  132   1       0.4038   0.0032
  127  134   1       0.4005   0.0027
  127  136   1       0.3025   0.0000
  127  138   1       0.4607   0.0096
  127  140   1       0.3025   0.0000
  127  142   1       0.4601   0.0094
  127  144   1       0.3025   0.0000
  127  146   1       0.4585   0.0096
  127  148   1       0.3025   0.0000
  127  150   1       0.4607   0.0117
  127  152   1       0.3025   0.0000
  127  154   1       0.3025   0.0000
  127  156   1       0.3025   0.0000
  127  158   1       0.4724   0.0079
  127  160   1       0.4349   0.0030
  127  162   1       0.4724   0.0070
  127  164   1       0.4505   0.0109
  127  166   1       0.4650   0.0099
  127  168   1       0.4260   0.0030
  127  170   1       0.4724   0.0070
  127  172   1       0.4324   0.0029
  127  176   1       0.4650   0.0099
  127  178   1       0.4005   0.0030
  127  180   1       0.4650   0.0099
  127  182   1       0.3559   0.0030
  128    0   1       0.1583   0.0000
  128    2   1       0.3283   0.3973
  128    4   1       0.3283   0.3973
  128    6   1       0.3283   0.3973
  128    8   1       0.3283   0.3973
  128   10   1       0.3283   0.3973
  128   12   1       0.3283   0.3973
  128   14   1       0.3283   0.3973
  128   16   1       0.3283   0.3973
  128   18   1       0.3283   0.3973
  128   20   1       0.3283   0.3973
  128   22   1       0.3283   0.3973
  128   24   1       0.3283   0.4481
  128   26   1       0.3283   0.4481
  128   28   1       0.3283   0.4481
  128   30   1       0.3283   0.4481
  128   32   1       0.3283   0.4481
  128   34   1       0.3283   0.4481
  128   36   1       0.3283   0.4481
  128   38   1       0.3283   0.3973
  128   40   1       0.3283   0.3973
  128   42   1       0.3283   0.3973
  128   44   1       0.3109   0.9186
  128   46   1       0.3142   0.3346
  128   48   1       0.2117   0.1697
  128   50   1       0.2117   0.1697
  128   52   1       0.2908   0.1697
  128   54   1       0.2818   0.1697
  128   56   1       0.2729   0.1697
  128   58   1       0.2640   0.1697
  128   60   1       0.2883   0.1659
  128   62   1       0.2838   0.1659
  128   64   1       0.2794   0.1659
  128   66   1       0.1583   0.0000
  128   68   1       0.2117   0.1697
  128   70   1       0.1583   0.0000
  128   72   1       0.2563   0.1697
  128   74   1       0.3676   0.8568
  128   76   1       0.3783   0.4284
  128   78   1       0.3247   0.0713
  128   80   1       0.6037   0.4284
  128   82   1       0.2289   1.2814
  128   84   1       0.3208   0.5586
  128   86   1       0.3208   0.5586
  128   88   1       0.3208   0.5586
  128   90   1       0.3208   0.5586
  128   92   1       0.3208   0.5586
  128   94   1       0.3208   0.5586
  128   96   1       0.3208   0.5586
  128   98   1       0.3063   0.6208
  128  100   1       0.3063   0.6208
  128  102   1       0.3158   0.5283
  128  104   1       0.3116   0.6214
  128  106   1       0.3116   0.6214
  128  108   1       0.3083   0.5586
  128  110   1       0.3063   0.6208
  128  112   1       0.3454   0.6058
  128  114   1       0.3365   0.6774
  128  116   1       0.3365   0.6774
  128  118   1       0.3283   0.3973
  128  120   1       0.1583   0.0000
  128  122   1       0.3951   0.0245
  128  124   1       0.4216   0.0177
  128  132   1       0.2596   0.1833
  128  134   1       0.2563   0.1515
  128  136   1       0.1583   0.0000
  128  138   1       0.3165   0.5465
  128  140   1       0.1583   0.0000
  128  142   1       0.3160   0.5333
  128  144   1       0.1583   0.0000
  128  146   1       0.3143   0.5419
  128  148   1       0.1583   0.0000
  128  150   1       0.3165   0.6620
  128  152   1       0.1583   0.0000
  128  154   1       0.1583   0.0000
  128  156   1       0.1583   0.0000
  128  158   1       0.3283   0.4481
  128  160   1       0.2908   0.1697
  128  162   1       0.3283   0.3973
  128  164   1       0.3063   0.6208
  128  166   1       0.3208   0.5586
  128  168   1       0.2818   0.1697
  128  170   1       0.3283   0.3973
  128  172   1       0.2883   0.1659
  128  176   1       0.3208   0.5586
  128  178   1       0.2563   0.1697
  128  180   1       0.3208   0.5586
  128  182   1       0.2117   0.1697
  129    0   1       0.1583   0.0000
  129    2   1       0.3283   0.3077
  129    4   1       0.3283   0.3077
  129    6   1       0.3283   0.3077
  129    8   1       0.3283   0.3077
  129   10   1       0.3283   0.3077
  129   12   1       0.3283   0.3077
  129   14   1       0.3283   0.3077
  129   16   1       0.3283   0.3077
  129   18   1       0.3283   0.3077
  129   20   1       0.3283   0.3077
  129   22   1       0.3283   0.3077
  129   24   1       0.3283   0.3471
  129   26   1       0.3283   0.3471
  129   28   1       0.3283   0.3471
  129   30   1       0.3283   0.3471
  129   32   1       0.3283   0.3471
  129   34   1       0.3283   0.3471
  129   36   1       0.3283   0.3471
  129   38   1       0.3283   0.3077
  129   40   1       0.3283   0.3077
  129   42   1       0.3283   0.3077
  129   44   1       0.3109   0.7115
  129   46   1       0.3142   0.2592
  129   48   1       0.2117   0.1315
  129   50   1       0.2117   0.1315
  129   52   1       0.2908   0.1315
  129   54   1       0.2818   0.1315
  129   56   1       0.2729   0.1315
  129   58   1       0.2640   0.1315
  129   60   1       0.2883   0.1285
  129   62   1       0.2838   0.1285
  129   64   1       0.2794   0.1285
  129   66   1       0.1583   0.0000
  129   68   1       0.2117   0.1315
  129   70   1       0.1583   0.0000
  129   72   1       0.2563   0.1315
  129   74   1       0.3676   0.6637
  129   76   1       0.3783   0.3318
  129   78   1       0.3247   0.0552
  129   80   1       0.6037   0.3318
  129   82   1       0.2289   0.9926
  129   84   1       0.3208   0.4327
  129   86   1       0.3208   0.4327
  129   88   1       0.3208   0.4327
  129   90   1       0.3208   0.4327
  129   92   1       0.3208   0.4327
  129   94   1       0.3208   0.4327
  129   96   1       0.3208   0.4327
  129   98   1       0.3063   0.4809
  129  100   1       0.3063   0.4809
  129  102   1       0.3158   0.4092
  129  104   1       0.3116   0.4813
  129  106   1       0.3116   0.4813
  129  108   1       0.3083   0.4327
  129  110   1       0.3063   0.4809
  129  112   1       0.3454   0.4693
  129  114   1       0.3365   0.5247
  129  116   1       0.3365   0.5247
  129  118   1       0.3283   0.3077
  129  120   1       0.1583   0.0000
  129  122   1       0.3951   0.0190
  129  124   1       0.4216   0.0137
  129  132   1       0.2596   0.1420
  129  134   1       0.2563   0.1173
  129  136   1       0.1583   0.0000
  129  138   1       0.3165   0.4233
  129  140   1       0.1583   0.0000
  129  142   1       0.3160   0.4131
  129  144   1       0.1583   0.0000
  129  146   1       0.3143   0.4197
  129  148   1       0.1583   0.0000
  129  150   1       0.3165   0.5127
  129  152   1       0.1583   0.0000
  129  154   1       0.1583   0.0000
  129  156   1       0.1583   0.0000
  129  158   1       0.3283   0.3471
  129  160   1       0.2908   0.1315
  129  162   1       0.3283   0.3077
  129  164   1       0.3063   0.4809
  129  166   1       0.3208   0.4327
  129  168   1       0.2818   0.1315
  129  170   1       0.3283   0.3077
  129  172   1       0.2883   0.1285
  129  176   1       0.3208   0.4327
  129  178   1       0.2563   0.1315
  129  180   1       0.3208   0.4327
  129  182   1       0.2117   0.1315
  130    0   1       0.0000   0.0000
  130    2   1       0.1700   0.0000
  130    4   1       0.1700   0.0000
  130    6   1       0.1700   0.0000
  130    8   1       0.1700   0.0000
  130   10   1       0.1700   0.0000
  130   12   1       0.1700   0.0000
  130   14   1       0.1700   0.0000
  130   16   1       0.1700   0.0000
  130   18   1       0.1700   0.0000
  130   20   1       0.1700   0.0000
  130   22   1       0.1700   0.0000
  130   24   1       0.1700   0.0000
  130   26   1       0.1700   0.0000
  130   28   1       0.1700   0.0000
  130   30   1       0.1700   0.0000
  130   32   1       0.1700   0.0000
  130   34   1       0.1700   0.0000
  130   36   1       0.1700   0.0000
  130   38   1       0.1700   0.0000
  130   40   1       0.1700   0.0000
  130   42   1       0.1700   0.0000
  130   44   1       0.1526   0.0000
  130   46   1       0.1559   0.0000
  130   48   1       0.0535   0.0000
  130   50   1       0.0535   0.0000
  130   52   1       0.1325   0.0000
  130   54   1       0.1236   0.0000
  130   56   1       0.1147   0.0000
  130   58   1       0.1057   0.0000
  130   60   1       0.1300   0.0000
  130   62   1       0.1255   0.0000
  130   64   1       0.1211   0.0000
  130   66   1       0.0000   0.0000
  130   68   1       0.0535   0.0000
  130   70   1       0.0000   0.0000
  130   72   1       0.0980   0.0000
  130   74   1       0.2094   0.0000
  130   76   1       0.2201   0.0000
  130   78   1       0.1664   0.0000
  130   80   1       0.4454   0.0000
  130   82   1       0.0706   0.0000
  130   84   1       0.1625   0.0000
  130   86   1       0.1625   0.0000
  130   88   1       0.1625   0.0000
  130   90   1       0.1625   0.0000
  130   92   1       0.1625   0.0000
  130   94   1       0.1625   0.0000
  130   96   1       0.1625   0.0000
  130   98   1       0.1480   0.0000
  130  100   1       0.1480   0.0000
  130  102   1       0.1575   0.0000
  130  104   1       0.1533   0.0000
  130  106   1       0.1533   0.0000
  130  108   1       0.1500   0.0000
  130  110   1       0.1480   0.0000
  130  112   1       0.1871   0.0000
  130  114   1       0.1782   0.0000
  130  116   1       0.1782   0.0000
  130  118   1       0.1700   0.0000
  130  120   1       0.0000   0.0000
  130  122   1       0.2368   0.0000
  130  124   1       0.2633   0.0000
  130  132   1       0.1013   0.0000
  130  134   1       0.0980   0.0000
  130  136   1       0.0000   0.0000
  130  138   1       0.1582   0.0000
  130  140   1       0.0000   0.0000
  130  142   1       0.1577   0.0000
  130  144   1       0.0000   0.0000
  130  146   1       0.1560   0.0000
  130  148   1       0.0000   0.0000
  130  150   1       0.1583   0.0000
  130  152   1       0.0000   0.0000
  130  154   1       0.0000   0.0000
  130  156   1       0.0000   0.0000
  130  158   1       0.1700   0.0000
  130  160   1       0.1325   0.0000
  130  162   1       0.1700   0.0000
  130  164   1       0.1480   0.0000
  130  166   1       0.1625   0.0000
  130  168   1       0.1236   0.0000
  130  170   1       0.1700   0.0000
  130  172   1       0.1300   0.0000
  130  176   1       0.1625   0.0000
  130  178   1       0.0980   0.0000
  130  180   1       0.1625   0.0000
  130  182   1       0.0535   0.0000
  131    0   1       0.0000   0.0000
  131    2   1       0.1700   0.0000
  131    4   1       0.1700   0.0000
  131    6   1       0.1700   0.0000
  131    8   1       0.1700   0.0000
  131   10   1       0.1700   0.0000
  131   12   1       0.1700   0.0000
  131   14   1       0.1700   0.0000
  131   16   1       0.1700   0.0000
  131   18   1       0.1700   0.0000
  131   20   1       0.1700   0.0000
  131   22   1       0.1700   0.0000
  131   24   1       0.1700   0.0000
  131   26   1       0.1700   0.0000
  131   28   1       0.1700   0.0000
  131   30   1       0.1700   0.0000
  131   32   1       0.1700   0.0000
  131   34   1       0.1700   0.0000
  131   36   1       0.1700   0.0000
  131   38   1       0.1700   0.0000
  131   40   1       0.1700   0.0000
  131   42   1       0.1700   0.0000
  131   44   1       0.1526   0.0000
  131   46   1       0.1559   0.0000
  131   48   1       0.0535   0.0000
  131   50   1       0.0535   0.0000
  131   52   1       0.1325   0.0000
  131   54   1       0.1236   0.0000
  131   56   1       0.1147   0.0000
  131   58   1       0.1057   0.0000
  131   60   1       0.1300   0.0000
  131   62   1       0.1255   0.0000
  131   64   1       0.1211   0.0000
  131   66   1       0.0000   0.0000
  131   68   1       0.0535   0.0000
  131   70   1       0.0000   0.0000
  131   72   1       0.0980   0.0000
  131   74   1       0.2094   0.0000
  131   76   1       0.2201   0.0000
  131   78   1       0.1664   0.0000
  131   80   1       0.4454   0.0000
  131   82   1       0.0706   0.0000
  131   84   1       0.1625   0.0000
  131   86   1       0.1625   0.0000
  131   88   1       0.1625   0.0000
  131   90   1       0.1625   0.0000
  131   92   1       0.1625   0.0000
  131   94   1       0.1625   0.0000
  131   96   1       0.1625   0.0000
  131   98   1       0.1480   0.0000
  131  100   1       0.1480   0.0000
  131  102   1       0.1575   0.0000
  131  104   1       0.1533   0.0000
  131  106   1       0.1533   0.0000
  131  108   1       0.1500   0.0000
  131  110   1       0.1480   0.0000
  131  112   1       0.1871   0.0000
  131  114   1       0.1782   0.0000
  131  116   1       0.1782   0.0000
  131  118   1       0.1700   0.0000
  131  120   1       0.0000   0.0000
  131  122   1       0.2368   0.0000
  131  124   1       0.2633   0.0000
  131  132   1       0.1013   0.0000
  131  134   1       0.0980   0.0000
  131  136   1       0.0000   0.0000
  131  138   1       0.1582   0.0000
  131  140   1       0.0000   0.0000
  131  142   1       0.1577   0.0000
  131  144   1       0.0000   0.0000
  131  146   1       0.1560   0.0000
  131  148   1       0.0000   0.0000
  131  150   1       0.1583   0.0000
  131  152   1       0.0000   0.0000
  131  154   1       0.0000   0.0000
  131  156   1       0.0000   0.0000
  131  158   1       0.1700   0.0000
  131  160   1       0.1325   0.0000
  131  162   1       0.1700   0.0000
  131  164   1       0.1480   0.0000
  131  166   1       0.1625   0.0000
  131  168   1       0.1236   0.0000
  131  170   1       0.1700   0.0000
  131  172   1       0.1300   0.0000
  131  176   1       0.1625   0.0000
  131  178   1       0.0980   0.0000
  131  180   1       0.1625   0.0000
  131  182   1       0.0535   0.0000
  133    0   1       0.1013   0.0000
  133    2   1       0.2713   0.1056
  133    4   1       0.2713   0.1056
  133    6   1       0.2713   0.1056
  133    8   1       0.2713   0.1056
  133   10   1       0.2713   0.1056
  133   12   1       0.2713   0.1056
  133   14   1       0.2713   0.1056
  133   16   1       0.2713   0.1056
  133   18   1       0.2713   0.1056
  133   20   1       0.2713   0.1056
  133   22   1       0.2713   0.1056
  133   24   1       0.2713   0.1191
  133   26   1       0.2713   0.1191
  133   28   1       0.2713   0.1191
  133   30   1       0.2713   0.1191
  133   32   1       0.2713   0.1191
  133   34   1       0.2713   0.1191
  133   36   1       0.2713   0.1191
  133   38   1       0.2713   0.1056
  133   40   1       0.2713   0.1056
  133   42   1       0.2713   0.1056
  133   44   1       0.2539   0.2441
  133   46   1       0.2572   0.0889
  133   48   1       0.1547   0.0451
  133   50   1       0.1547   0.0451
  133   52   1       0.2338   0.0451
  133   54   1       0.2249   0.0451
  133   56   1       0.2160   0.0451
  133   58   1       0.2070   0.0451
  133   60   1       0.2313   0.0441
  133   62   1       0.2268   0.0441
  133   64   1       0.2224   0.0441
  133   66   1       0.1013   0.0000
  133   68   1       0.1547   0.0451
  133   70   1       0.1013   0.0000
  133   72   1       0.1993   0.0451
  133   74   1       0.3107   0.2277
  133   76   1       0.3213   0.1138
  133   78   1       0.2677   0.0189
  133   80   1       0.5467   0.1138
  133   82   1       0.1719   0.3405
  133   84   1       0.2638   0.1484
  133   86   1       0.2638   0.1484
  133   88   1       0.2638   0.1484
  133   90   1       0.2638   0.1484
  133   92   1       0.2638   0.1484
  133   94   1       0.2638   0.1484
  133   96   1       0.2638   0.1484
  133   98   1       0.2493   0.1650
  133  100   1       0.2493   0.1650
  133  102   1       0.2588   0.1404
  133  104   1       0.2546   0.1651
  133  106   1       0.2546   0.1651
  133  108   1       0.2513   0.1484
  133  110   1       0.2493   0.1650
  133  112   1       0.2884   0.1610
  133  114   1       0.2795   0.1800
  133  116   1       0.2795   0.1800
  133  118   1       0.2713   0.1056
  133  120   1       0.1013   0.0000
  133  122   1       0.3381   0.0065
  133  124   1       0.3646   0.0047
  133  132   1       0.2026   0.0487
  133  134   1       0.1993   0.0402
  133  136   1       0.1013   0.0000
  133  138   1       0.2595   0.1452
  133  140   1       0.1013   0.0000
  133  142   1       0.2590   0.1417
  133  144   1       0.1013   0.0000
  133  146   1       0.2573   0.1440
  133  148   1       0.1013   0.0000
  133  150   1       0.2595   0.1759
  133  152   1       0.1013   0.0000
  133  154   1       0.1013   0.0000
  133  156   1       0.1013   0.0000
  133  158   1       0.2713   0.1191
  133  160   1       0.2338   0.0451
  133  162   1       0.2713   0.1056
  133  164   1       0.2493   0.1650
  133  166   1       0.2638   0.1484
  133  168   1       0.2249   0.0451
  133  170   1       0.2713   0.1056
  133  172   1       0.2313   0.0441
  133  176   1       0.2638   0.1484
  133  178   1       0.1993   0.0451
  133  180   1       0.2638   0.1484
  133  182   1       0.1547   0.0451
  135    0   1       0.0980   0.0000
  135    2   1       0.2680   0.0872
  135    4   1       0.2680   0.0872
  135    6   1       0.2680   0.0872
  135    8   1       0.2680   0.0872
  135   10   1       0.2680   0.0872
  135   12   1       0.2680   0.0872
  135   14   1       0.2680   0.0872
  135   16   1       0.2680   0.0872
  135   18   1       0.2680   0.0872
  135   20   1       0.2680   0.0872
  135   22   1       0.2680   0.0872
  135   24   1       0.2680   0.0984
  135   26   1       0.2680   0.0984
  135   28   1       0.2680   0.0984
  135   30   1       0.2680   0.0984
  135   32   1       0.2680   0.0984
  135   34   1       0.2680   0.0984
  135   36   1       0.2680   0.0984
  135   38   1       0.2680   0.0872
  135   40   1       0.2680   0.0872
  135   42   1       0.2680   0.0872
  135   44   1       0.2506   0.2017
  135   46   1       0.2539   0.0735
  135   48   1       0.1515   0.0373
  135   50   1       0.1515   0.0373
  135   52   1       0.2305   0.0373
  135   54   1       0.2216   0.0373
  135   56   1       0.2127   0.0373
  135   58   1       0.2037   0.0373
  135   60   1       0.2280   0.0364
  135   62   1       0.2235   0.0364
  135   64   1       0.2191   0.0364
  135   66   1       0.0980   0.0000
  135   68   1       0.1515   0.0373
  135   70   1       0.0980   0.0000
  135   72   1       0.1960   0.0373
  135   74   1       0.3074   0.1882
  135   76   1       0.3181   0.0941
  135   78   1       0.2644   0.0157
  135   80   1       0.5434   0.0941
  135   82   1       0.1686   0.2814
  135   84   1       0.2605   0.1227
  135   86   1       0.2605   0.1227
  135   88   1       0.2605   0.1227
  135   90   1       0.2605   0.1227
  135   92   1       0.2605   0.1227
  135   94   1       0.2605   0.1227
  135   96   1       0.2605   0.1227
  135   98   1       0.2460   0.1363
  135  100   1       0.2460   0.1363
  135  102   1       0.2555   0.1160
  135  104   1       0.2513   0.1365
  135  106   1       0.2513   0.1365
  135  108   1       0.2480   0.1227
  135  110   1       0.2460   0.1363
  135  112   1       0.2851   0.1331
  135  114   1       0.2762   0.1488
  135  116   1       0.2762   0.1488
  135  118   1       0.2680   0.0872
  135  120   1       0.0980   0.0000
  135  122   1       0.3348   0.0054
  135  124   1       0.3613   0.0039
  135  132   1       0.1993   0.0402
  135  134   1       0.1960   0.0333
  135  136   1       0.0980   0.0000
  135  138   1       0.2562   0.1200
  135  140   1       0.0980   0.0000
  135  142   1       0.2557   0.1171
  135  144   1       0.0980   0.0000
  135  146   1       0.2540   0.1190
  135  148   1       0.0980   0.0000
  135  150   1       0.2562   0.1454
  135  152   1       0.0980   0.0000
  135  154   1       0.0980   0.0000
  135  156   1       0.0980   0.0000
  135  158   1       0.2680   0.0984
  135  160   1       0.2305   0.0373
  135  162   1       0.2680   0.0872
  135  164   1       0.2460   0.1363
  135  166   1       0.2605   0.1227
  135  168   1       0.2216   0.0373
  135  170   1       0.2680   0.0872
  135  172   1       0.2280   0.0364
  135  176   1       0.2605   0.1227
  135  178   1       0.1960   0.0373
  135  180   1       0.2605   0.1227
  135  182   1       0.1515   0.0373
  137    0   1       0.0000   0.0000
  137    2   1       0.1700   0.0000
  137    4   1       0.1700   0.0000
  137    6   1       0.1700   0.0000
  137    8   1       0.1700   0.0000
  137   10   1       0.1700   0.0000
  137   12   1       0.1700   0.0000
  137   14   1       0.1700   0.0000
  137   16   1       0.1700   0.0000
  137   18   1       0.1700   0.0000
  137   20   1       0.1700   0.0000
  137   22   1       0.1700   0.0000
  137   24   1       0.1700   0.0000
  137   26   1       0.1700   0.0000
  137   28   1       0.1700   0.0000
  137   30   1       0.1700   0.0000
  137   32   1       0.1700   0.0000
  137   34   1       0.1700   0.0000
  137   36   1       0.1700   0.0000
  137   38   1       0.1700   0.0000
  137   40   1       0.1700   0.0000
  137   42   1       0.1700   0.0000
  137   44   1       0.1526   0.0000
  137   46   1       0.1559   0.0000
  137   48   1       0.0535   0.0000
  137   50   1       0.0535   0.0000
  137   52   1       0.1325   0.0000
  137   54   1       0.1236   0.0000
  137   56   1       0.1147   0.0000
  137   58   1       0.1057   0.0000
  137   60   1       0.1300   0.0000
  137   62   1       0.1255   0.0000
  137   64   1       0.1211   0.0000
  137   66   1       0.0000   0.0000
  137   68   1       0.0535   0.0000
  137   70   1       0.0000   0.0000
  137   72   1       0.0980   0.0000
  137   74   1       0.2094   0.0000
  137   76   1       0.2201   0.0000
  137   78   1       0.1664   0.0000
  137   80   1       0.4454   0.0000
  137   82   1       0.0706   0.0000
  137   84   1       0.1625   0.0000
  137   86   1       0.1625   0.0000
  137   88   1       0.1625   0.0000
  137   90   1       0.1625   0.0000
  137   92   1       0.1625   0.0000
  137   94   1       0.1625   0.0000
  137   96   1       0.1625   0.0000
  137   98   1       0.1480   0.0000
  137  100   1       0.1480   0.0000
  137  102   1       0.1575   0.0000
  137  104   1       0.1533   0.0000
  137  106   1       0.1533   0.0000
  137  108   1       0.1500   0.0000
  137  110   1       0.1480   0.0000
  137  112   1       0.1871   0.0000
  137  114   1       0.1782   0.0000
  137  116   1       0.1782   0.0000
  137  118   1       0.1700   0.0000
  137  120   1       0.0000   0.0000
  137  122   1       0.2368   0.0000
  137  124   1       0.2633   0.0000
  137  132   1       0.1013   0.0000
  137  134   1       0.0980   0.0000
  137  136   1       0.0000   0.0000
  137  138   1       0.1582   0.0000
  137  140   1       0.0000   0.0000
  137  142   1       0.1577   0.0000
  137  144   1       0.0000   0.0000
  137  146   1       0.1560   0.0000
  137  148   1       0.0000   0.0000
  137  150   1       0.1583   0.0000
  137  152   1       0.0000   0.0000
  137  154   1       0.0000   0.0000
  137  156   1       0.0000   0.0000
  137  158   1       0.1700   0.0000
  137  160   1       0.1325   0.0000
  137  162   1       0.1700   0.0000
  137  164   1       0.1480   0.0000
  137  166   1       0.1625   0.0000
  137  168   1       0.1236   0.0000
  137  170   1       0.1700   0.0000
  137  172   1       0.1300   0.0000
  137  176   1       0.1625   0.0000
  137  178   1       0.0980   0.0000
  137  180   1       0.1625   0.0000
  137  182   1       0.0535   0.0000
  139    0   1       0.1582   0.0000
  139    2   1       0.3282   0.3148
  139    4   1       0.3282   0.3148
  139    6   1       0.3282   0.3148
  139    8   1       0.3282   0.3148
  139   10   1       0.3282   0.3148
  139   12   1       0.3282   0.3148
  139   14   1       0.3282   0.3148
  139   16   1       0.3282   0.3148
  139   18   1       0.3282   0.3148
  139   20   1       0.3282   0.3148
  139   22   1       0.3282   0.3148
  139   24   1       0.3282   0.3551
  139   26   1       0.3282   0.3551
  139   28   1       0.3282   0.3551
  139   30   1       0.3282   0.3551
  139   32   1       0.3282   0.3551
  139   34   1       0.3282   0.3551
  139   36   1       0.3282   0.3551
  139   38   1       0.3282   0.3148
  139   40   1       0.3282   0.3148
  139   42   1       0.3282   0.3148
  139   44   1       0.3108   0.7279
  139   46   1       0.3141   0.2651
  139   48   1       0.2117   0.1345
  139   50   1       0.2117   0.1345
  139   52   1       0.2907   0.1345
  139   54   1       0.2818   0.1345
  139   56   1       0.2729   0.1345
  139   58   1       0.2640   0.1345
  139   60   1       0.2882   0.1315
  139   62   1       0.2837   0.1315
  139   64   1       0.2793   0.1315
  139   66   1       0.1582   0.0000
  139   68   1       0.2117   0.1345
  139   70   1       0.1582   0.0000
  139   72   1       0.2562   0.1345
  139   74   1       0.3676   0.6790
  139   76   1       0.3783   0.3395
  139   78   1       0.3246   0.0565
  139   80   1       0.6037   0.3395
  139   82   1       0.2288   1.0154
  139   84   1       0.3207   0.4426
  139   86   1       0.3207   0.4426
  139   88   1       0.3207   0.4426
  139   90   1       0.3207   0.4426
  139   92   1       0.3207   0.4426
  139   94   1       0.3207   0.4426
  139   96   1       0.3207   0.4426
  139   98   1       0.3062   0.4919
  139  100   1       0.3062   0.4919
  139  102   1       0.3157   0.4187
  139  104   1       0.3115   0.4924
  139  106   1       0.3115   0.4924
  139  108   1       0.3082   0.4426
  139  110   1       0.3062   0.4919
  139  112   1       0.3453   0.4801
  139  114   1       0.3364   0.5368
  139  116   1       0.3364   0.5368
  139  118   1       0.3282   0.3148
  139  120   1       0.1582   0.0000
  139  122   1       0.3950   0.0194
  139  124   1       0.4216   0.0140
  139  132   1       0.2595   0.1452
  139  134   1       0.2562   0.1200
  139  136   1       0.1582   0.0000
  139  138   1       0.3164   0.4331
  139  140   1       0.1582   0.0000
  139  142   1       0.3159   0.4226
  139  144   1       0.1582   0.0000
  139  146   1       0.3142   0.4294
  139  148   1       0.1582   0.0000
  139  150   1       0.3165   0.5246
  139  152   1       0.1582   0.0000
  139  154   1       0.1582   0.0000
  139  156   1       0.1582   0.0000
  139  158   1       0.3282   0.3551
  139  160   1       0.2907   0.1345
  139  162   1       0.3282   0.3148
  139  164   1       0.3062   0.4919
  139  166   1       0.3207   0.4426
  139  168   1       0.2818   0.1345
  139  170   1       0.3282   0.3148
  139  172   1       0.2882   0.1315
  139  176   1       0.3207   0.4426
  139  178   1       0.2562   0.1345
  139  180   1       0.3207   0.4426
  139  182   1       0.2117   0.1345
  141    0   1       0.0000   0.0000
  141    2   1       0.1700   0.0000
  141    4   1       0.1700   0.0000
  141    6   1       0.1700   0.0000
  141    8   1       0.1700   0.0000
  141   10   1       0.1700   0.0000
  141   12   1       0.1700   0.0000
  141   14   1       0.1700   0.0000
  141   16   1       0.1700   0.0000
  141   18   1       0.1700   0.0000
  141   20   1       0.1700   0.0000
  141   22   1       0.1700   0.0000
  141   24   1       0.1700   0.0000
  141   26   1       0.1700   0.0000
  141   28   1       0.1700   0.0000
  141   30   1       0.1700   0.0000
  141   32   1       0.1700   0.0000
  141   34   1       0.1700   0.0000
  141   36   1       0.1700   0.0000
  141   38   1       0.1700   0.0000
  141   40   1       0.1700   0.0000
  141   42   1       0.1700   0.0000
  141   44   1       0.1526   0.0000
  141   46   1       0.1559   0.0000
  141   48   1       0.0535   0.0000
  141   50   1       0.0535   0.0000
  141   52   1       0.1325   0.0000
  141   54   1       0.1236   0.0000
  141   56   1       0.1147   0.0000
  141   58   1       0.1057   0.0000
  141   60   1       0.1300   0.0000
  141   62   1       0.1255   0.0000
  141   64   1       0.1211   0.0000
  141   66   1       0.0000   0.0000
  141   68   1       0.0535   0.0000
  141   70   1       0.0000   0.0000
  141   72   1       0.0980   0.0000
  141   74   1       0.2094   0.0000
  141   76   1       0.2201   0.0000
  141   78   1       0.1664   0.0000
  141   80   1       0.4454   0.0000
  141   82   1       0.0706   0.0000
  141   84   1       0.1625   0.0000
  141   86   1       0.1625   0.0000
  141   88   1       0.1625   0.0000
  141   90   1       0.1625   0.0000
  141   92   1       0.1625   0.0000
  141   94   1       0.1625   0.0000
  141   96   1       0.1625   0.0000
  141   98   1       0.1480   0.0000
  141  100   1       0.1480   0.0000
  141  102   1       0.1575   0.0000
  141  104   1       0.1533   0.0000
  141  106   1       0.1533   0.0000
  141  108   1       0.1500   0.0000
  141  110   1       0.1480   0.0000
  141  112   1       0.1871   0.0000
  141  114   1       0.1782   0.0000
  141  116   1       0.1782   0.0000
  141  118   1       0.1700   0.0000
  141  120   1       0.0000   0.0000
  141  122   1       0.2368   0.0000
  141  124   1       0.2633   0.0000
  141  132   1       0.1013   0.0000
  141  134   1       0.0980   0.0000
  141  136   1       0.0000   0.0000
  141  138   1       0.1582   0.0000
  141  140   1       0.0000   0.0000
  141  142   1       0.1577   0.0000
  141  144   1       0.0000   0.0000
  141  146   1       0.1560   0.0000
  141  148   1       0.0000   0.0000
  141  150   1       0.1583   0.0000
  141  152   1       0.0000   0.0000
  141  154   1       0.0000   0.0000
  141  156   1       0.0000   0.0000
  141  158   1       0.1700   0.0000
  141  160   1       0.1325   0.0000
  141  162   1       0.1700   0.0000
  141  164   1       0.1480   0.0000
  141  166   1       0.1625   0.0000
  141  168   1       0.1236   0.0000
  141  170   1       0.1700   0.0000
  141  172   1       0.1300   0.0000
  141  176   1       0.1625   0.0000
  141  178   1       0.0980   0.0000
  141  180   1       0.1625   0.0000
  141  182   1       0.0535   0.0000
  143    0   1       0.1577   0.0000
  143    2   1       0.3277   0.3072
  143    4   1       0.3277   0.3072
  143    6   1       0.3277   0.3072
  143    8   1       0.3277   0.3072
  143   10   1       0.3277   0.3072
  143   12   1       0.3277   0.3072
  143   14   1       0.3277   0.3072
  143   16   1       0.3277   0.3072
  143   18   1       0.3277   0.3072
  143   20   1       0.3277   0.3072
  143   22   1       0.3277   0.3072
  143   24   1       0.3277   0.3465
  143   26   1       0.3277   0.3465
  143   28   1       0.3277   0.3465
  143   30   1       0.3277   0.3465
  143   32   1       0.3277   0.3465
  143   34   1       0.3277   0.3465
  143   36   1       0.3277   0.3465
  143   38   1       0.3277   0.3072
  143   40   1       0.3277   0.3072
  143   42   1       0.3277   0.3072
  143   44   1       0.3103   0.7104
  143   46   1       0.3136   0.2587
  143   48   1       0.2111   0.1313
  143   50   1       0.2111   0.1313
  143   52   1       0.2902   0.1313
  143   54   1       0.2812   0.1313
  143   56   1       0.2723   0.1313
  143   58   1       0.2634   0.1313
  143   60   1       0.2877   0.1283
  143   62   1       0.2832   0.1283
  143   64   1       0.2788   0.1283
  143   66   1       0.1577   0.0000
  143   68   1       0.2111   0.1313
  143   70   1       0.1577   0.0000
  143   72   1       0.2557   0.1313
  143   74   1       0.3670   0.6626
  143   76   1       0.3777   0.3313
  143   78   1       0.3241   0.0551
  143   80   1       0.6031   0.3313
  143   82   1       0.2283   0.9910
  143   84   1       0.3202   0.4320
  143   86   1       0.3202   0.4320
  143   88   1       0.3202   0.4320
  143   90   1       0.3202   0.4320
  143   92   1       0.3202   0.4320
  143   94   1       0.3202   0.4320
  143   96   1       0.3202   0.4320
  143   98   1       0.3057   0.4801
  143  100   1       0.3057   0.4801
  143  102   1       0.3152   0.4086
  143  104   1       0.3110   0.4805
  143  106   1       0.3110   0.4805
  143  108   1       0.3077   0.4320
  143  110   1       0.3057   0.4801
  143  112   1       0.3448   0.4685
  143  114   1       0.3359   0.5238
  143  116   1       0.3359   0.5238
  143  118   1       0.3277   0.3072
  143  120   1       0.1577   0.0000
  143  122   1       0.3945   0.0190
  143  124   1       0.4210   0.0137
  143  132   1       0.2590   0.1417
  143  134   1       0.2557   0.1171
  143  136   1       0.1577   0.0000
  143  138   1       0.3159   0.4226
  143  140   1       0.1577   0.0000
  143  142   1       0.3154   0.4125
  143  144   1       0.1577   0.0000
  143  146   1       0.3137   0.4191
  143  148   1       0.1577   0.0000
  143  150   1       0.3159   0.5119
  143  152   1       0.1577   0.0000
  143  154   1       0.1577   0.0000
  143  156   1       0.1577   0.0000
  143  158   1       0.3277   0.3465
  143  160   1       0.2902   0.1313
  143  162   1       0.3277   0.3072
  143  164   1       0.3057   0.4801
  143  166   1       0.3202   0.4320
  143  168   1       0.2812   0.1313
  143  170   1       0.3277   0.3072
  143  172   1       0.2877   0.1283
  143  176   1       0.3202   0.4320
  143  178   1       0.2557   0.1313
  143  180   1       0.3202   0.4320
  143  182   1       0.2111   0.1313
  145    0   1       0.0000   0.0000
  145    2   1       0.1700   0.0000
  145    4   1       0.1700   0.0000
  145    6   1       0.1700   0.0000
  145    8   1       0.1700   0.0000
  145   10   1       0.1700   0.0000
  145   12   1       0.1700   0.0000
  145   14   1       0.1700   0.0000
  145   16   1       0.1700   0.0000
  145   18   1       0.1700   0.0000
  145   20   1       0.1700   0.0000
  145   22   1       0.1700   0.0000
  145   24   1       0.1700   0.0000
  145   26   1       0.1700   0.0000
  145   28   1       0.1700   0.0000
  145   30   1       0.1700   0.0000
  145   32   1       0.1700   0.0000
  145   34   1       0.1700   0.0000
  145   36   1       0.1700   0.0000
  145   38   1       0.1700   0.0000
  145   40   1       0.1700   0.0000
  145   42   1       0.1700   0.0000
  145   44   1       0.1526   0.0000
  145   46   1       0.1559   0.0000
  145   48   1       0.0535   0.0000
  145   50   1       0.0535   0.0000
  145   52   1       0.1325   0.0000
  145   54   1       0.1236   0.0000
  145   56   1       0.1147   0.0000
  145   58   1       0.1057   0.0000
  145   60   1       0.1300   0.0000
  145   62   1       0.1255   0.0000
  145   64   1       0.1211   0.0000
  145   66   1       0.0000   0.0000
  145   68   1       0.0535   0.0000
  145   70   1       0.0000   0.0000
  145   72   1       0.0980   0.0000
  145   74   1       0.2094   0.0000
  145   76   1       0.2201   0.0000
  145   78   1       0.1664   0.0000
  145   80   1       0.4454   0.0000
  145   82   1       0.0706   0.0000
  145   84   1       0.1625   0.0000
  145   86   1       0.1625   0.0000
  145   88   1       0.1625   0.0000
  145   90   1       0.1625   0.0000
  145   92   1       0.1625   0.0000
  145   94   1       0.1625   0.0000
  145   96   1       0.1625   0.0000
  145   98   1       0.1480   0.0000
  145  100   1       0.1480   0.0000
  145  102   1       0.1575   0.0000
  145  104   1       0.1533   0.0000
  145  106   1       0.1533   0.0000
  145  108   1       0.1500   0.0000
  145  110   1       0.1480   0.0000
  145  112   1       0.1871   0.0000
  145  114   1       0.1782   0.0000
  145  116   1       0.1782   0.0000
  145  118   1       0.1700   0.0000
  145  120   1       0.0000   0.0000
  145  122   1       0.2368   0.0000
  145  124   1       0.2633   0.0000
  145  132   1       0.1013   0.0000
  145  134   1       0.0980   0.0000
  145  136   1       0.0000   0.0000
  145  138   1       0.1582   0.0000
  145  140   1       0.0000   0.0000
  145  142   1       0.1577   0.0000
  145  144   1       0.0000   0.0000
  145  146   1       0.1560   0.0000
  145  148   1       0.0000   0.0000
  145  150   1       0.1583   0.0000
  145  152   1       0.0000   0.0000
  145  154   1       0.0000   0.0000
  145  156   1       0.0000   0.0000
  145  158   1       0.1700   0.0000
  145  160   1       0.1325   0.0000
  145  162   1       0.1700   0.0000
  145  164   1       0.1480   0.0000
  145  166   1       0.1625   0.0000
  145  168   1       0.1236   0.0000
  145  170   1       0.1700   0.0000
  145  172   1       0.1300   0.0000
  145  176   1       0.1625   0.0000
  145  178   1       0.0980   0.0000
  145  180   1       0.1625   0.0000
  145  182   1       0.0535   0.0000
  147    0   1       0.1560   0.0000
  147    2   1       0.3260   0.3121
  147    4   1       0.3260   0.3121
  147    6   1       0.3260   0.3121
  147    8   1       0.3260   0.3121
  147   10   1       0.3260   0.3121
  147   12   1       0.3260   0.3121
  147   14   1       0.3260   0.3121
  147   16   1       0.3260   0.3121
  147   18   1       0.3260   0.3121
  147   20   1       0.3260   0.3121
  147   22   1       0.3260   0.3121
  147   24   1       0.3260   0.3521
  147   26   1       0.3260   0.3521
  147   28   1       0.3260   0.3521
  147   30   1       0.3260   0.3521
  147   32   1       0.3260   0.3521
  147   34   1       0.3260   0.3521
  147   36   1       0.3260   0.3521
  147   38   1       0.3260   0.3121
  147   40   1       0.3260   0.3121
  147   42   1       0.3260   0.3121
  147   44   1       0.3086   0.7218
  147   46   1       0.3119   0.2629
  147   48   1       0.2095   0.1334
  147   50   1       0.2095   0.1334
  147   52   1       0.2885   0.1334
  147   54   1       0.2796   0.1334
  147   56   1       0.2707   0.1334
  147   58   1       0.2617   0.1334
  147   60   1       0.2860   0.1304
  147   62   1       0.2815   0.1304
  147   64   1       0.2771   0.1304
  147   66   1       0.1560   0.0000
  147   68   1       0.2095   0.1334
  147   70   1       0.1560   0.0000
  147   72   1       0.2540   0.1334
  147   74   1       0.3654   0.6732
  147   76   1       0.3761   0.3366
  147   78   1       0.3224   0.0560
  147   80   1       0.6014   0.3366
  147   82   1       0.2266   1.0068
  147   84   1       0.3185   0.4389
  147   86   1       0.3185   0.4389
  147   88   1       0.3185   0.4389
  147   90   1       0.3185   0.4389
  147   92   1       0.3185   0.4389
  147   94   1       0.3185   0.4389
  147   96   1       0.3185   0.4389
  147   98   1       0.3040   0.4878
  147  100   1       0.3040   0.4878
  147  102   1       0.3135   0.4151
  147  104   1       0.3093   0.4882
  147  106   1       0.3093   0.4882
  147  108   1       0.3060   0.4389
  147  110   1       0.3040   0.4878
  147  112   1       0.3431   0.4760
  147  114   1       0.3342   0.5322
  147  116   1       0.3342   0.5322
  147  118   1       0.3260   0.3121
  147  120   1       0.1560   0.0000
  147  122   1       0.3928   0.0193
  147  124   1       0.4193   0.0139
  147  132   1       0.2573   0.1440
  147  134   1       0.2540   0.1190
  147  136   1       0.1560   0.0000
  147  138   1       0.3142   0.4294
  147  140   1       0.1560   0.0000
  147  142   1       0.3137   0.4191
  147  144   1       0.1560   0.0000
  147  146   1       0.3120   0.4258
  147  148   1       0.1560   0.0000
  147  150   1       0.3142   0.5201
  147  152   1       0.1560   0.0000
  147  154   1       0.1560   0.0000
  147  156   1       0.1560   0.0000
  147  158   1       0.3260   0.3521
  147  160   1       0.2885   0.1334
  147  162   1       0.3260   0.3121
  147  164   1       0.3040   0.4878
  147  166   1       0.3185   0.4389
  147  168   1       0.2796   0.1334
  147  170   1       0.3260   0.3121
  147  172   1       0.2860   0.1304
  147  176   1       0.3185   0.4389
  147  178   1       0.2540   0.1334
  147  180   1       0.3185   0.4389
  147  182   1       0.2095   0.1334
  149    0   1       0.0000   0.0000
  149    2   1       0.1700   0.0000
  149    4   1       0.1700   0.0000
  149    6   1       0.1700   0.0000
  149    8   1       0.1700   0.0000
  149   10   1       0.1700   0.0000
  149   12   1       0.1700   0.0000
  149   14   1       0.1700   0.0000
  149   16   1       0.1700   0.0000
  149   18   1       0.1700   0.0000
  149   20   1       0.1700   0.0000
  149   22   1       0.1700   0.0000
  149   24   1       0.1700   0.0000
  149   26   1       0.1700   0.0000
  149   28   1       0.1700   0.0000
  149   30   1       0.1700   0.0000
  149   32   1       0.1700   0.0000
  149   34   1       0.1700   0.0000
  149   36   1       0.1700   0.0000
  149   38   1       0.1700   0.0000
  149   40   1       0.1700   0.0000
  149   42   1       0.1700   0.0000
  149   44   1       0.1526   0.0000
  149   46   1       0.1559   0.0000
  149   48   1       0.0535   0.0000
  149   50   1       0.0535   0.0000
  149   52   1       0.1325   0.0000
  149   54   1       0.1236   0.0000
  149   56   1       0.1147   0.0000
  149   58   1       0.1057   0.0000
  149   60   1       0.1300   0.0000
  149   62   1       0.1255   0.0000
  149   64   1       0.1211   0.0000
  149   66   1       0.0000   0.0000
  149   68   1       0.0535   0.0000
  149   70   1       0.0000   0.0000
  149   72   1       0.0980   0.0000
  149   74   1       0.2094   0.0000
  149   76   1       0.2201   0.0000
  149   78   1       0.1664   0.0000
  149   80   1       0.4454   0.0000
  149   82   1       0.0706   0.0000
  149   84   1       0.1625   0.0000
  149   86   1       0.1625   0.0000
  149   88   1       0.1625   0.0000
  149   90   1       0.1625   0.0000
  149   92   1       0.1625   0.0000
  149   94   1       0.1625   0.0000
  149   96   1       0.1625   0.0000
  149   98   1       0.1480   0.0000
  149  100   1       0.1480   0.0000
  149  102   1       0.1575   0.0000
  149  104   1       0.1533   0.0000
  149  106   1       0.1533   0.0000
  149  108   1       0.1500   0.0000
  149  110   1       0.1480   0.0000
  149  112   1       0.1871   0.0000
  149  114   1       0.1782   0.0000
  149  116   1       0.1782   0.0000
  149  118   1       0.1700   0.0000
  149  120   1       0.0000   0.0000
  149  122   1       0.2368   0.0000
  149  124   1       0.2633   0.0000
  149  132   1       0.1013   0.0000
  149  134   1       0.0980   0.0000
  149  136   1       0.0000   0.0000
  149  138   1       0.1582   0.0000
  149  140   1       0.0000   0.0000
  149  142   1       0.1577   0.0000
  149  144   1       0.0000   0.0000
  149  146   1       0.1560   0.0000
  149  148   1       0.0000   0.0000
  149  150   1       0.1583   0.0000
  149  152   1       0.0000   0.0000
  149  154   1       0.0000   0.0000
  149  156   1       0.0000   0.0000
  149  158   1       0.1700   0.0000
  149  160   1       0.1325   0.0000
  149  162   1       0.1700   0.0000
  149  164   1       0.1480   0.0000
  149  166   1       0.1625   0.0000
  149  168   1       0.1236   0.0000
  149  170   1       0.1700   0.0000
  149  172   1       0.1300   0.0000
  149  176   1       0.1625   0.0000
  149  178   1       0.0980   0.0000
  149  180   1       0.1625   0.0000
  149  182   1       0.0535   0.0000
  151    0   1       0.1583   0.0000
  151    2   1       0.3282   0.3813
  151    4   1       0.3282   0.3813
  151    6   1       0.3282   0.3813
  151    8   1       0.3282   0.3813
  151   10   1       0.3282   0.3813
  151   12   1       0.3282   0.3813
  151   14   1       0.3282   0.3813
  151   16   1       0.3282   0.3813
  151   18   1       0.3282   0.3813
  151   20   1       0.3282   0.3813
  151   22   1       0.3282   0.3813
  151   24   1       0.3282   0.4301
  151   26   1       0.3282   0.4301
  151   28   1       0.3282   0.4301
  151   30   1       0.3282   0.4301
  151   32   1       0.3282   0.4301
  151   34   1       0.3282   0.4301
  151   36   1       0.3282   0.4301
  151   38   1       0.3282   0.3813
  151   40   1       0.3282   0.3813
  151   42   1       0.3282   0.3813
  151   44   1       0.3109   0.8817
  151   46   1       0.3142   0.3211
  151   48   1       0.2117   0.1629
  151   50   1       0.2117   0.1629
  151   52   1       0.2907   0.1629
  151   54   1       0.2818   0.1629
  151   56   1       0.2729   0.1629
  151   58   1       0.2640   0.1629
  151   60   1       0.2882   0.1592
  151   62   1       0.2838   0.1592
  151   64   1       0.2793   0.1592
  151   66   1       0.1583   0.0000
  151   68   1       0.2117   0.1629
  151   70   1       0.1583   0.0000
  151   72   1       0.2562   0.1629
  151   74   1       0.3676   0.8224
  151   76   1       0.3783   0.4112
  151   78   1       0.3247   0.0684
  151   80   1       0.6037   0.4112
  151   82   1       0.2289   1.2299
  151   84   1       0.3207   0.5361
  151   86   1       0.3207   0.5361
  151   88   1       0.3207   0.5361
  151   90   1       0.3207   0.5361
  151   92   1       0.3207   0.5361
  151   94   1       0.3207   0.5361
  151   96   1       0.3207   0.5361
  151   98   1       0.3062   0.5959
  151  100   1       0.3062   0.5959
  151  102   1       0.3158   0.5071
  151  104   1       0.3116   0.5964
  151  106   1       0.3116   0.5964
  151  108   1       0.3083   0.5361
  151  110   1       0.3062   0.5959
  151  112   1       0.3453   0.5815
  151  114   1       0.3364   0.6501
  151  116   1       0.3364   0.6501
  151  118   1       0.3282   0.3813
  151  120   1       0.1583   0.0000
  151  122   1       0.3951   0.0235
  151  124   1       0.4216   0.0170
  151  132   1       0.2595   0.1759
  151  134   1       0.2562   0.1454
  151  136   1       0.1583   0.0000
  151  138   1       0.3165   0.5246
  151  140   1       0.1583   0.0000
  151  142   1       0.3159   0.5119
  151  144   1       0.1583   0.0000
  151  146   1       0.3142   0.5201
  151  148   1       0.1583   0.0000
  151  150   1       0.3165   0.6354
  151  152   1       0.1583   0.0000
  151  154   1       0.1583   0.0000
  151  156   1       0.1583   0.0000
  151  158   1       0.3282   0.4301
  151  160   1       0.2907   0.1629
  151  162   1       0.3282   0.3813
  151  164   1       0.3062   0.5959
  151  166   1       0.3207   0.5361
  151  168   1       0.2818   0.1629
  151  170   1       0.3282   0.3813
  151  172   1       0.2882   0.1592
  151  176   1       0.3207   0.5361
  151  178   1       0.2562   0.1629
  151  180   1       0.3207   0.5361
  151  182   1       0.2117   0.1629
  153    0   1       0.0000   0.0000
  153    2   1       0.1700   0.0000
  153    4   1       0.1700   0.0000
  153    6   1       0.1700   0.0000
  153    8   1       0.1700   0.0000
  153   10   1       0.1700   0.0000
  153   12   1       0.1700   0.0000
  153   14   1       0.1700   0.0000
  153   16   1       0.1700   0.0000
  153   18   1       0.1700   0.0000
  153   20   1       0.1700   0.0000
  153   22   1       0.1700   0.0000
  153   24   1       0.1700   0.0000
  153   26   1       0.1700   0.0000
  153   28   1       0.1700   0.0000
  153   30   1       0.1700   0.0000
  153   32   1       0.1700   0.0000
  153   34   1       0.1700   0.0000
  153   36   1       0.1700   0.0000
  153   38   1       0.1700   0.0000
  153   40   1       0.1700   0.0000
  153   42   1       0.1700   0.0000
  153   44   1       0.1526   0.0000
  153   46   1       0.1559   0.0000
  153   48   1       0.0535   0.0000
  153   50   1       0.0535   0.0000
  153   52   1       0.1325   0.0000
  153   54   1       0.1236   0.0000
  153   56   1       0.1147   0.0000
  153   58   1       0.1057   0.0000
  153   60   1       0.1300   0.0000
  153   62   1       0.1255   0.0000
  153   64   1       0.1211   0.0000
  153   66   1       0.0000   0.0000
  153   68   1       0.0535   0.0000
  153   70   1       0.0000   0.0000
  153   72   1       0.0980   0.0000
  153   74   1       0.2094   0.0000
  153   76   1       0.2201   0.0000
  153   78   1       0.1664   0.0000
  153   80   1       0.4454   0.0000
  153   82   1       0.0706   0.0000
  153   84   1       0.1625   0.0000
  153   86   1       0.1625   0.0000
  153   88   1       0.1625   0.0000
  153   90   1       0.1625   0.0000
  153   92   1       0.1625   0.0000
  153   94   1       0.1625   0.0000
  153   96   1       0.1625   0.0000
  153   98   1       0.1480   0.0000
  153  100   1       0.1480   0.0000
  153  102   1       0.1575   0.0000
  153  104   1       0.1533   0.0000
  153  106   1       0.1533   0.0000
  153  108   1       0.1500   0.0000
  153  110   1       0.1480   0.0000
  153  112   1       0.1871   0.0000
  153  114   1       0.1782   0.0000
  153  116   1       0.1782   0.0000
  153  118   1       0.1700   0.0000
  153  120   1       0.0000   0.0000
  153  122   1       0.2368   0.0000
  153  124   1       0.2633   0.0000
  153  132   1       0.1013   0.0000
  153  134   1       0.0980   0.0000
  153  136   1       0.0000   0.0000
  153  138   1       0.1582   0.0000
  153  140   1       0.0000   0.0000
  153  142   1       0.1577   0.0000
  153  144   1       0.0000   0.0000
  153  146   1       0.1560   0.0000
  153  148   1       0.0000   0.0000
  153  150   1       0.1583   0.0000
  153  152   1       0.0000   0.0000
  153  154   1       0.0000   0.0000
  153  156   1       0.0000   0.0000
  153  158   1       0.1700   0.0000
  153  160   1       0.1325   0.0000
  153  162   1       0.1700   0.0000
  153  164   1       0.1480   0.0000
  153  166   1       0.1625   0.0000
  153  168   1       0.1236   0.0000
  153  170   1       0.1700   0.0000
  153  172   1       0.1300   0.0000
  153  176   1       0.1625   0.0000
  153  178   1       0.0980   0.0000
  153  180   1       0.1625   0.0000
  153  182   1       0.0535   0.0000
  155    0   1       0.0000   0.0000
  155    2   1       0.1700   0.0000
  155    4   1       0.1700   0.0000
  155    6   1       0.1700   0.0000
  155    8   1       0.1700   0.0000
  155   10   1       0.1700   0.0000
  155   12   1       0.1700   0.0000
  155   14   1       0.1700   0.0000
  155   16   1       0.1700   0.0000
  155   18   1       0.1700   0.0000
  155   20   1       0.1700   0.0000
  155   22   1       0.1700   0.0000
  155   24   1       0.1700   0.0000
  155   26   1       0.1700   0.0000
  155   28   1       0.1700   0.0000
  155   30   1       0.1700   0.0000
  155   32   1       0.1700   0.0000
  155   34   1       0.1700   0.0000
  155   36   1       0.1700   0.0000
  155   38   1       0.1700   0.0000
  155   40   1       0.1700   0.0000
  155   42   1       0.1700   0.0000
  155   44   1       0.1526   0.0000
  155   46   1       0.1559   0.0000
  155   48   1       0.0535   0.0000
  155   50   1       0.0535   0.0000
  155   52   1       0.1325   0.0000
  155   54   1       0.1236   0.0000
  155   56   1       0.1147   0.0000
  155   58   1       0.1057   0.0000
  155   60   1       0.1300   0.0000
  155   62   1       0.1255   0.0000
  155   64   1       0.1211   0.0000
  155   66   1       0.0000   0.0000
  155   68   1       0.0535   0.0000
  155   70   1       0.0000   0.0000
  155   72   1       0.0980   0.0000
  155   74   1       0.2094   0.0000
  155   76   1       0.2201   0.0000
  155   78   1       0.1664   0.0000
  155   80   1       0.4454   0.0000
  155   82   1       0.0706   0.0000
  155   84   1       0.1625   0.0000
  155   86   1       0.1625   0.0000
  155   88   1       0.1625   0.0000
  155   90   1       0.1625   0.0000
  155   92   1       0.1625   0.0000
  155   94   1       0.1625   0.0000
  155   96   1       0.1625   0.0000
  155   98   1       0.1480   0.0000
  155  100   1       0.1480   0.0000
  155  102   1       0.1575   0.0000
  155  104   1       0.1533   0.0000
  155  106   1       0.1533   0.0000
  155  108   1       0.1500   0.0000
  155  110   1       0.1480   0.0000
  155  112   1       0.1871   0.0000
  155  114   1       0.1782   0.0000
  155  116   1       0.1782   0.0000
  155  118   1       0.1700   0.0000
  155  120   1       0.0000   0.0000
  155  122   1       0.2368   0.0000
  155  124   1       0.2633   0.0000
  155  132   1       0.1013   0.0000
  155  134   1       0.0980   0.0000
  155  136   1       0.0000   0.0000
  155  138   1       0.1582   0.0000
  155  140   1       0.0000   0.0000
  155  142   1       0.1577   0.0000
  155  144   1       0.0000   0.0000
  155  146   1       0.1560   0.0000
  155  148   1       0.0000   0.0000
  155  150   1       0.1583   0.0000
  155  152   1       0.0000   0.0000
  155  154   1       0.0000   0.0000
  155  156   1       0.0000   0.0000
  155  158   1       0.1700   0.0000
  155  160   1       0.1325   0.0000
  155  162   1       0.1700   0.0000
  155  164   1       0.1480   0.0000
  155  166   1       0.1625   0.0000
  155  168   1       0.1236   0.0000
  155  170   1       0.1700   0.0000
  155  172   1       0.1300   0.0000
  155  176   1       0.1625   0.0000
  155  178   1       0.0980   0.0000
  155  180   1       0.1625   0.0000
  155  182   1       0.0535   0.0000
  157    0   1       0.0000   0.0000
  157    2   1       0.1700   0.0000
  157    4   1       0.1700   0.0000
  157    6   1       0.1700   0.0000
  157    8   1       0.1700   0.0000
  157   10   1       0.1700   0.0000
  157   12   1       0.1700   0.0000
  157   14   1       0.1700   0.0000
  157   16   1       0.1700   0.0000
  157   18   1       0.1700   0.0000
  157   20   1       0.1700   0.0000
  157   22   1       0.1700   0.0000
  157   24   1       0.1700   0.0000
  157   26   1       0.1700   0.0000
  157   28   1       0.1700   0.0000
  157   30   1       0.1700   0.0000
  157   32   1       0.1700   0.0000
  157   34   1       0.1700   0.0000
  157   36   1       0.1700   0.0000
  157   38   1       0.1700   0.0000
  157   40   1       0.1700   0.0000
  157   42   1       0.1700   0.0000
  157   44   1       0.1526   0.0000
  157   46   1       0.1559   0.0000
  157   48   1       0.0535   0.0000
  157   50   1       0.0535   0.0000
  157   52   1       0.1325   0.0000
  157   54   1       0.1236   0.0000
  157   56   1       0.1147   0.0000
  157   58   1       0.1057   0.0000
  157   60   1       0.1300   0.0000
  157   62   1       0.1255   0.0000
  157   64   1       0.1211   0.0000
  157   66   1       0.0000   0.0000
  157   68   1       0.0535   0.0000
  157   70   1       0.0000   0.0000
  157   72   1       0.0980   0.0000
  157   74   1       0.2094   0.0000
  157   76   1       0.2201   0.0000
  157   78   1       0.1664   0.0000
  157   80   1       0.4454   0.0000
  157   82   1       0.0706   0.0000
  157   84   1       0.1625   0.0000
  157   86   1       0.1625   0.0000
  157   88   1       0.1625   0.0000
  157   90   1       0.1625   0.0000
  157   92   1       0.1625   0.0000
  157   94   1       0.1625   0.0000
  157   96   1       0.1625   0.0000
  157   98   1       0.1480   0.0000
  157  100   1       0.1480   0.0000
  157  102   1       0.1575   0.0000
  157  104   1       0.1533   0.0000
  157  106   1       0.1533   0.0000
  157  108   1       0.1500   0.0000
  157  110   1       0.1480   0.0000
  157  112   1       0.1871   0.0000
  157  114   1       0.1782   0.0000
  157  116   1       0.1782   0.0000
  157  118   1       0.1700   0.0000
  157  120   1       0.0000   0.0000
  157  122   1       0.2368   0.0000
  157  124   1       0.2633   0.0000
  157  132   1       0.1013   0.0000
  157  134   1       0.0980   0.0000
  157  136   1       0.0000   0.0000
  157  138   1       0.1582   0.0000
  157  140   1       0.0000   0.0000
  157  142   1       0.1577   0.0000
  157  144   1       0.0000   0.0000
  157  146   1       0.1560   0.0000
  157  148   1       0.0000   0.0000
  157  150   1       0.1583   0.0000
  157  152   1       0.0000   0.0000
  157  154   1       0.0000   0.0000
  157  156   1       0.0000   0.0000
  157  158   1       0.1700   0.0000
  157  160   1       0.1325   0.0000
  157  162   1       0.1700   0.0000
  157  164   1       0.1480   0.0000
  157  166   1       0.1625   0.0000
  157  168   1       0.1236   0.0000
  157  170   1       0.1700   0.0000
  157  172   1       0.1300   0.0000
  157  176   1       0.1625   0.0000
  157  178   1       0.0980   0.0000
  157  180   1       0.1625   0.0000
  157  182   1       0.0535   0.0000
  159    0   1       0.1700   0.0000
  159    2   1       0.3400   0.1262
  159    4   1       0.3400   0.1262
  159    6   1       0.3400   0.1262
  159    8   1       0.3400   0.1262
  159   10   1       0.3400   0.1262
  159   12   1       0.3400   0.1262
  159   14   1       0.3400   0.1262
  159   16   1       0.3400   0.1262
  159   18   1       0.3400   0.1262
  159   20   1       0.3400   0.1262
  159   22   1       0.3400   0.1262
  159   24   1       0.3400   0.1423
  159   26   1       0.3400   0.1423
  159   28   1       0.3400   0.1423
  159   30   1       0.3400   0.1423
  159   32   1       0.3400   0.1423
  159   34   1       0.3400   0.1423
  159   36   1       0.3400   0.1423
  159   38   1       0.3400   0.1262
  159   40   1       0.3400   0.1262
  159   42   1       0.3400   0.1262
  159   44   1       0.3226   0.2918
  159   46   1       0.3259   0.1063
  159   48   1       0.2234   0.0539
  159   50   1       0.2234   0.0539
  159   52   1       0.3025   0.0539
  159   54   1       0.2936   0.0539
  159   56   1       0.2846   0.0539
  159   58   1       0.2757   0.0539
  159   60   1       0.3000   0.0527
  159   62   1       0.2955   0.0527
  159   64   1       0.2911   0.0527
  159   66   1       0.1700   0.0000
  159   68   1       0.2234   0.0539
  159   70   1       0.1700   0.0000
  159   72   1       0.2680   0.0539
  159   74   1       0.3793   0.2721
  159   76   1       0.3900   0.1361
  159   78   1       0.3364   0.0226
  159   80   1       0.6154   0.1361
  159   82   1       0.2406   0.4070
  159   84   1       0.3325   0.1774
  159   86   1       0.3325   0.1774
  159   88   1       0.3325   0.1774
  159   90   1       0.3325   0.1774
  159   92   1       0.3325   0.1774
  159   94   1       0.3325   0.1774
  159   96   1       0.3325   0.1774
  159   98   1       0.3180   0.1972
  159  100   1       0.3180   0.1972
  159  102   1       0.3275   0.1678
  159  104   1       0.3233   0.1974
  159  106   1       0.3233   0.1974
  159  108   1       0.3200   0.1774
  159  110   1       0.3180   0.1972
  159  112   1       0.3571   0.1924
  159  114   1       0.3482   0.2151
  159  116   1       0.3482   0.2151
  159  118   1       0.3400   0.1262
  159  120   1       0.1700   0.0000
  159  122   1       0.4068   0.0078
  159  124   1       0.4333   0.0056
  159  132   1       0.2713   0.0582
  159  134   1       0.2680   0.0481
  159  136   1       0.1700   0.0000
  159  138   1       0.3282   0.1736
  159  140   1       0.1700   0.0000
  159  142   1       0.3277   0.1694
  159  144   1       0.1700   0.0000
  159  146   1       0.3260   0.1721
  159  148   1       0.1700   0.0000
  159  150   1       0.3282   0.2103
  159  152   1       0.1700   0.0000
  159  154   1       0.1700   0.0000
  159  156   1       0.1700   0.0000
  159  158   1       0.3400   0.1423
  159  160   1       0.3025   0.0539
  159  162   1       0.3400   0.1262
  159  164   1       0.3180   0.1972
  159  166   1       0.3325   0.1774
  159  168   1       0.2936   0.0539
  159  170   1       0.3400   0.1262
  159  172   1       0.3000   0.0527
  159  176   1       0.3325   0.1774
  159  178   1       0.2680   0.0539
  159  180   1       0.3325   0.1774
  159  182   1       0.2234   0.0539
  161    0   1       0.1325   0.0000
  161    2   1       0.3025   0.0478
  161    4   1       0.3025   0.0478
  161    6   1       0.3025   0.0478
  161    8   1       0.3025   0.0478
  161   10   1       0.3025   0.0478
  161   12   1       0.3025   0.0478
  161   14   1       0.3025   0.0478
  161   16   1       0.3025   0.0478
  161   18   1       0.3025   0.0478
  161   20   1       0.3025   0.0478
  161   22   1       0.3025   0.0478
  161   24   1       0.3025   0.0539
  161   26   1       0.3025   0.0539
  161   28   1       0.3025   0.0539
  161   30   1       0.3025   0.0539
  161   32   1       0.3025   0.0539
  161   34   1       0.3025   0.0539
  161   36   1       0.3025   0.0539
  161   38   1       0.3025   0.0478
  161   40   1       0.3025   0.0478
  161   42   1       0.3025   0.0478
  161   44   1       0.2851   0.1105
  161   46   1       0.2884   0.0403
  161   48   1       0.1859   0.0204
  161   50   1       0.1859   0.0204
  161   52   1       0.2650   0.0204
  161   54   1       0.2560   0.0204
  161   56   1       0.2471   0.0204
  161   58   1       0.2382   0.0204
  161   60   1       0.2625   0.0200
  161   62   1       0.2580   0.0200
  161   64   1       0.2535   0.0200
  161   66   1       0.1325   0.0000
  161   68   1       0.1859   0.0204
  161   70   1       0.1325   0.0000
  161   72   1       0.2305   0.0204
  161   74   1       0.3418   0.1031
  161   76   1       0.3525   0.0515
  161   78   1       0.2989   0.0086
  161   80   1       0.5779   0.0515
  161   82   1       0.2031   0.1542
  161   84   1       0.2950   0.0672
  161   86   1       0.2950   0.0672
  161   88   1       0.2950   0.0672
  161   90   1       0.2950   0.0672
  161   92   1       0.2950   0.0672
  161   94   1       0.2950   0.0672
  161   96   1       0.2950   0.0672
  161   98   1       0.2805   0.0747
  161  100   1       0.2805   0.0747
  161  102   1       0.2900   0.0636
  161  104   1       0.2858   0.0748
  161  106   1       0.2858   0.0748
  161  108   1       0.2825   0.0672
  161  110   1       0.2805   0.0747
  161  112   1       0.3196   0.0729
  161  114   1       0.3107   0.0815
  161  116   1       0.3107   0.0815
  161  118   1       0.3025   0.0478
  161  120   1       0.1325   0.0000
  161  122   1       0.3693   0.0030
  161  124   1       0.3958   0.0021
  161  132   1       0.2338   0.0221
  161  134   1       0.2305   0.0182
  161  136   1       0.1325   0.0000
  161  138   1       0.2907   0.0658
  161  140   1       0.1325   0.0000
  161  142   1       0.2902   0.0642
  161  144   1       0.1325   0.0000
  161  146   1       0.2885   0.0652
  161  148   1       0.1325   0.0000
  161  150   1       0.2907   0.0797
  161  152   1       0.1325   0.0000
  161  154   1       0.1325   0.0000
  161  156   1       0.1325   0.0000
  161  158   1       0.3025   0.0539
  161  160   1       0.2650   0.0204
  161  162   1       0.3025   0.0478
  161  164   1       0.2805   0.0747
  161  166   1       0.2950   0.0672
  161  168   1       0.2560   0.0204
  161  170   1       0.3025   0.0478
  161  172   1       0.2625   0.0200
  161  176   1       0.2950   0.0672
  161  178   1       0.2305   0.0204
  161  180   1       0.2950   0.0672
  161  182   1       0.1859   0.0204
  163    0   1       0.1700   0.0000
  163    2   1       0.3400   0.1119
  163    4   1       0.3400   0.1119
  163    6   1       0.3400   0.1119
  163    8   1       0.3400   0.1119
  163   10   1       0.3400   0.1119
  163   12   1       0.3400   0.1119
  163   14   1       0.3400   0.1119
  163   16   1       0.3400   0.1119
  163   18   1       0.3400   0.1119
  163   20   1       0.3400   0.1119
  163   22   1       0.3400   0.1119
  163   24   1       0.3400   0.1262
  163   26   1       0.3400   0.1262
  163   28   1       0.3400   0.1262
  163   30   1       0.3400   0.1262
  163   32   1       0.3400   0.1262
  163   34   1       0.3400   0.1262
  163   36   1       0.3400   0.1262
  163   38   1       0.3400   0.1119
  163   40   1       0.3400   0.1119
  163   42   1       0.3400   0.1119
  163   44   1       0.3226   0.2587
  163   46   1       0.3259   0.0942
  163   48   1       0.2234   0.0478
  163   50   1       0.2234   0.0478
  163   52   1       0.3025   0.0478
  163   54   1       0.2936   0.0478
  163   56   1       0.2846   0.0478
  163   58   1       0.2757   0.0478
  163   60   1       0.3000   0.0467
  163   62   1       0.2955   0.0467
  163   64   1       0.2911   0.0467
  163   66   1       0.1700   0.0000
  163   68   1       0.2234   0.0478
  163   70   1       0.1700   0.0000
  163   72   1       0.2680   0.0478
  163   74   1       0.3793   0.2413
  163   76   1       0.3900   0.1206
  163   78   1       0.3364   0.0201
  163   80   1       0.6154   0.1206
  163   82   1       0.2406   0.3609
  163   84   1       0.3325   0.1573
  163   86   1       0.3325   0.1573
  163   88   1       0.3325   0.1573
  163   90   1       0.3325   0.1573
  163   92   1       0.3325   0.1573
  163   94   1       0.3325   0.1573
  163   96   1       0.3325   0.1573
  163   98   1       0.3180   0.1748
  163  100   1       0.3180   0.1748
  163  102   1       0.3275   0.1488
  163  104   1       0.3233   0.1750
  163  106   1       0.3233   0.1750
  163  108   1       0.3200   0.1573
  163  110   1       0.3180   0.1748
  163  112   1       0.3571   0.1706
  163  114   1       0.3482   0.1908
  163  116   1       0.3482   0.1908
  163  118   1       0.3400   0.1119
  163  120   1       0.1700   0.0000
  163  122   1       0.4068   0.0069
  163  124   1       0.4333   0.0050
  163  132   1       0.2713   0.0516
  163  134   1       0.2680   0.0427
  163  136   1       0.1700   0.0000
  163  138   1       0.3282   0.1539
  163  140   1       0.1700   0.0000
  163  142   1       0.3277   0.1502
  163  144   1       0.1700   0.0000
  163  146   1       0.3260   0.1526
  163  148   1       0.1700   0.0000
  163  150   1       0.3282   0.1864
  163  152   1       0.1700   0.0000
  163  154   1       0.1700   0.0000
  163  156   1       0.1700   0.0000
  163  158   1       0.3400   0.1262
  163  160   1       0.3025   0.0478
  163  162   1       0.3400   0.1119
  163  164   1       0.3180   0.1748
  163  166   1       0.3325   0.1573
  163  168   1       0.2936   0.0478
  163  170   1       0.3400   0.1119
  163  172   1       0.3000   0.0467
  163  176   1       0.3325   0.1573
  163  178   1       0.2680   0.0478
  163  180   1       0.3325   0.1573
  163  182   1       0.2234   0.0478
  165    0   1       0.1480   0.0000
  165    2   1       0.3180   0.1748
  165    4   1       0.3180   0.1748
  165    6   1       0.3180   0.1748
  165    8   1       0.3180   0.1748
  165   10   1       0.3180   0.1748
  165   12   1       0.3180   0.1748
  165   14   1       0.3180   0.1748
  165   16   1       0.3180   0.1748
  165   18   1       0.3180   0.1748
  165   20   1       0.3180   0.1748
  165   22   1       0.3180   0.1748
  165   24   1       0.3180   0.1972
  165   26   1       0.3180   0.1972
  165   28   1       0.3180   0.1972
  165   30   1       0.3180   0.1972
  165   32   1       0.3180   0.1972
  165   34   1       0.3180   0.1972
  165   36   1       0.3180   0.1972
  165   38   1       0.3180   0.1748
  165   40   1       0.3180   0.1748
  165   42   1       0.3180   0.1748
  165   44   1       0.3006   0.4042
  165   46   1       0.3039   0.1472
  165   48   1       0.2014   0.0747
  165   50   1       0.2014   0.0747
  165   52   1       0.2805   0.0747
  165   54   1       0.2716   0.0747
  165   56   1       0.2627   0.0747
  165   58   1       0.2537   0.0747
  165   60   1       0.2780   0.0730
  165   62   1       0.2735   0.0730
  165   64   1       0.2691   0.0730
  165   66   1       0.1480   0.0000
  165   68   1       0.2014   0.0747
  165   70   1       0.1480   0.0000
  165   72   1       0.2460   0.0747
  165   74   1       0.3574   0.3770
  165   76   1       0.3680   0.1885
  165   78   1       0.3144   0.0314
  165   80   1       0.5934   0.1885
  165   82   1       0.2186   0.5639
  165   84   1       0.3105   0.2458
  165   86   1       0.3105   0.2458
  165   88   1       0.3105   0.2458
  165   90   1       0.3105   0.2458
  165   92   1       0.3105   0.2458
  165   94   1       0.3105   0.2458
  165   96   1       0.3105   0.2458
  165   98   1       0.2960   0.2732
  165  100   1       0.2960   0.2732
  165  102   1       0.3055   0.2325
  165  104   1       0.3013   0.2735
  165  106   1       0.3013   0.2735
  165  108   1       0.2980   0.2458
  165  110   1       0.2960   0.2732
  165  112   1       0.3351   0.2666
  165  114   1       0.3262   0.2981
  165  116   1       0.3262   0.2981
  165  118   1       0.3180   0.1748
  165  120   1       0.1480   0.0000
  165  122   1       0.3848   0.0108
  165  124   1       0.4113   0.0078
  165  132   1       0.2493   0.0806
  165  134   1       0.2460   0.0667
  165  136   1       0.1480   0.0000
  165  138   1       0.3062   0.2405
  165  140   1       0.1480   0.0000
  165  142   1       0.3057   0.2347
  165  144   1       0.1480   0.0000
  165  146   1       0.3040   0.2385
  165  148   1       0.1480   0.0000
  165  150   1       0.3062   0.2913
  165  152   1       0.1480   0.0000
  165  154   1       0.1480   0.0000
  165  156   1       0.1480   0.0000
  165  158   1       0.3180   0.1972
  165  160   1       0.2805   0.0747
  165  162   1       0.3180   0.1748
  165  164   1       0.2960   0.2732
  165  166   1       0.3105   0.2458
  165  168   1       0.2716   0.0747
  165  170   1       0.3180   0.1748
  165  172   1       0.2780   0.0730
  165  176   1       0.3105   0.2458
  165  178   1       0.2460   0.0747
  165  180   1       0.3105   0.2458
  165  182   1       0.2014   0.0747
  167    0   1       0.1625   0.0000
  167    2   1       0.3325   0.1573
  167    4   1       0.3325   0.1573
  167    6   1       0.3325   0.1573
  167    8   1       0.3325   0.1573
  167   10   1       0.3325   0.1573
  167   12   1       0.3325   0.1573
  167   14   1       0.3325   0.1573
  167   16   1       0.3325   0.1573
  167   18   1       0.3325   0.1573
  167   20   1       0.3325   0.1573
  167   22   1       0.3325   0.1573
  167   24   1       0.3325   0.1774
  167   26   1       0.3325   0.1774
  167   28   1       0.3325   0.1774
  167   30   1       0.3325   0.1774
  167   32   1       0.3325   0.1774
  167   34   1       0.3325   0.1774
  167   36   1       0.3325   0.1774
  167   38   1       0.3325   0.1573
  167   40   1       0.3325   0.1573
  167   42   1       0.3325   0.1573
  167   44   1       0.3151   0.3637
  167   46   1       0.3184   0.1325
  167   48   1       0.2160   0.0672
  167   50   1       0.2160   0.0672
  167   52   1       0.2950   0.0672
  167   54   1       0.2861   0.0672
  167   56   1       0.2772   0.0672
  167   58   1       0.2682   0.0672
  167   60   1       0.2925   0.0657
  167   62   1       0.2880   0.0657
  167   64   1       0.2836   0.0657
  167   66   1       0.1625   0.0000
  167   68   1       0.2160   0.0672
  167   70   1       0.1625   0.0000
  167   72   1       0.2605   0.0672
  167   74   1       0.3719   0.3392
  167   76   1       0.3826   0.1696
  167   78   1       0.3289   0.0282
  167   80   1       0.6079   0.1696
  167   82   1       0.2331   0.5074
  167   84   1       0.3250   0.2212
  167   86   1       0.3250   0.2212
  167   88   1       0.3250   0.2212
  167   90   1       0.3250   0.2212
  167   92   1       0.3250   0.2212
  167   94   1       0.3250   0.2212
  167   96   1       0.3250   0.2212
  167   98   1       0.3105   0.2458
  167  100   1       0.3105   0.2458
  167  102   1       0.3200   0.2092
  167  104   1       0.3158   0.2460
  167  106   1       0.3158   0.2460
  167  108   1       0.3125   0.2212
  167  110   1       0.3105   0.2458
  167  112   1       0.3496   0.2399
  167  114   1       0.3407   0.2682
  167  116   1       0.3407   0.2682
  167  118   1       0.3325   0.1573
  167  120   1       0.1625   0.0000
  167  122   1       0.3993   0.0097
  167  124   1       0.4258   0.0070
  167  132   1       0.2638   0.0726
  167  134   1       0.2605   0.0600
  167  136   1       0.1625   0.0000
  167  138   1       0.3207   0.2164
  167  140   1       0.1625   0.0000
  167  142   1       0.3202   0.2112
  167  144   1       0.1625   0.0000
  167  146   1       0.3185   0.2146
  167  148   1       0.1625   0.0000
  167  150   1       0.3207   0.2621
  167  152   1       0.1625   0.0000
  167  154   1       0.1625   0.0000
  167  156   1       0.1625   0.0000
  167  158   1       0.3325   0.1774
  167  160   1       0.2950   0.0672
  167  162   1       0.3325   0.1573
  167  164   1       0.3105   0.2458
  167  166   1       0.3250   0.2212
  167  168   1       0.2861   0.0672
  167  170   1       0.3325   0.1573
  167  172   1       0.2925   0.0657
  167  176   1       0.3250   0.2212
  167  178   1       0.2605   0.0672
  167  180   1       0.3250   0.2212
  167  182   1       0.2160   0.0672
  169    0   1       0.1236   0.0000
  169    2   1       0.2936   0.0478
  169    4   1       0.2936   0.0478
  169    6   1       0.2936   0.0478
  169    8   1       0.2936   0.0478
  169   10   1       0.2936   0.0478
  169   12   1       0.2936   0.0478
  169   14   1       0.2936   0.0478
  169   16   1       0.2936   0.0478
  169   18   1       0.2936   0.0478
  169   20   1       0.2936   0.0478
  169   22   1       0.2936   0.0478
  169   24   1       0.2936   0.0539
  169   26   1       0.2936   0.0539
  169   28   1       0.2936   0.0539
  169   30   1       0.2936   0.0539
  169   32   1       0.2936   0.0539
  169   34   1       0.2936   0.0539
  169   36   1       0.2936   0.0539
  169   38   1       0.2936   0.0478
  169   40   1       0.2936   0.0478
  169   42   1       0.2936   0.0478
  169   44   1       0.2762   0.1105
  169   46   1       0.2795   0.0403
  169   48   1       0.1770   0.0204
  169   50   1       0.1770   0.0204
  169   52   1       0.2560   0.0204
  169   54   1       0.2471   0.0204
  169   56   1       0.2382   0.0204
  169   58   1       0.2293   0.0204
  169   60   1       0.2535   0.0200
  169   62   1       0.2491   0.0200
  169   64   1       0.2446   0.0200
  169   66   1       0.1236   0.0000
  169   68   1       0.1770   0.0204
  169   70   1       0.1236   0.0000
  169   72   1       0.2216   0.0204
  169   74   1       0.3329   0.1031
  169   76   1       0.3436   0.0515
  169   78   1       0.2900   0.0086
  169   80   1       0.5690   0.0515
  169   82   1       0.1942   0.1542
  169   84   1       0.2861   0.0672
  169   86   1       0.2861   0.0672
  169   88   1       0.2861   0.0672
  169   90   1       0.2861   0.0672
  169   92   1       0.2861   0.0672
  169   94   1       0.2861   0.0672
  169   96   1       0.2861   0.0672
  169   98   1       0.2716   0.0747
  169  100   1       0.2716   0.0747
  169  102   1       0.2811   0.0636
  169  104   1       0.2769   0.0748
  169  106   1       0.2769   0.0748
  169  108   1       0.2736   0.0672
  169  110   1       0.2716   0.0747
  169  112   1       0.3107   0.0729
  169  114   1       0.3017   0.0815
  169  116   1       0.3017   0.0815
  169  118   1       0.2936   0.0478
  169  120   1       0.1236   0.0000
  169  122   1       0.3604   0.0030
  169  124   1       0.3869   0.0021
  169  132   1       0.2249   0.0221
  169  134   1       0.2216   0.0182
  169  136   1       0.1236   0.0000
  169  138   1       0.2818   0.0658
  169  140   1       0.1236   0.0000
  169  142   1       0.2812   0.0642
  169  144   1       0.1236   0.0000
  169  146   1       0.2796   0.0652
  169  148   1       0.1236   0.0000
  169  150   1       0.2818   0.0797
  169  152   1       0.1236   0.0000
  169  154   1       0.1236   0.0000
  169  156   1       0.1236   0.0000
  169  158   1       0.2936   0.0539
  169  160   1       0.2560   0.0204
  169  162   1       0.2936   0.0478
  169  164   1       0.2716   0.0747
  169  166   1       0.2861   0.0672
  169  168   1       0.2471   0.0204
  169  170   1       0.2936   0.0478
  169  172   1       0.2535   0.0200
  169  176   1       0.2861   0.0672
  169  178   1       0.2216   0.0204
  169  180   1       0.2861   0.0672
  169  182   1       0.1770   0.0204
  171    0   1       0.1700   0.0000
  171    2   1       0.3400   0.1119
  171    4   1       0.3400   0.1119
  171    6   1       0.3400   0.1119
  171    8   1       0.3400   0.1119
  171   10   1       0.3400   0.1119
  171   12   1       0.3400   0.1119
  171   14   1       0.3400   0.1119
  171   16   1       0.3400   0.1119
  171   18   1       0.3400   0.1119
  171   20   1       0.3400   0.1119
  171   22   1       0.3400   0.1119
  171   24   1       0.3400   0.1262
  171   26   1       0.3400   0.1262
  171   28   1       0.3400   0.1262
  171   30   1       0.3400   0.1262
  171   32   1       0.3400   0.1262
  171   34   1       0.3400   0.1262
  171   36   1       0.3400   0.1262
  171   38   1       0.3400   0.1119
  171   40   1       0.3400   0.1119
  171   42   1       0.3400   0.1119
  171   44   1       0.3226   0.2587
  171   46   1       0.3259   0.0942
  171   48   1       0.2234   0.0478
  171   50   1       0.2234   0.0478
  171   52   1       0.3025   0.0478
  171   54   1       0.2936   0.0478
  171   56   1       0.2846   0.0478
  171   58   1       0.2757   0.0478
  171   60   1       0.3000   0.0467
  171   62   1       0.2955   0.0467
  171   64   1       0.2911   0.0467
  171   66   1       0.1700   0.0000
  171   68   1       0.2234   0.0478
  171   70   1       0.1700   0.0000
  171   72   1       0.2680   0.0478
  171   74   1       0.3793   0.2413
  171   76   1       0.3900   0.1206
  171   78   1       0.3364   0.0201
  171   80   1       0.6154   0.1206
  171   82   1       0.2406   0.3609
  171   84   1       0.3325   0.1573
  171   86   1       0.3325   0.1573
  171   88   1       0.3325   0.1573
  171   90   1       0.3325   0.1573
  171   92   1       0.3325   0.1573
  171   94   1       0.3325   0.1573
  171   96   1       0.3325   0.1573
  171   98   1       0.3180   0.1748
  171  100   1       0.3180   0.1748
  171  102   1       0.3275   0.1488
  171  104   1       0.3233   0.1750
  171  106   1       0.3233   0.1750
  171  108   1       0.3200   0.1573
  171  110   1       0.3180   0.1748
  171  112   1       0.3571   0.1706
  171  114   1       0.3482   0.1908
  171  116   1       0.3482   0.1908
  171  118   1       0.3400   0.1119
  171  120   1       0.1700   0.0000
  171  122   1       0.4068   0.0069
  171  124   1       0.4333   0.0050
  171  132   1       0.2713   0.0516
  171  134   1       0.2680   0.0427
  171  136   1       0.1700   0.0000
  171  138   1       0.3282   0.1539
  171  140   1       0.1700   0.0000
  171  142   1       0.3277   0.1502
  171  144   1       0.1700   0.0000
  171  146   1       0.3260   0.1526
  171  148   1       0.1700   0.0000
  171  150   1       0.3282   0.1864
  171  152   1       0.1700   0.0000
  171  154   1       0.1700   0.0000
  171  156   1       0.1700   0.0000
  171  158   1       0.3400   0.1262
  171  160   1       0.3025   0.0478
  171  162   1       0.3400   0.1119
  171  164   1       0.3180   0.1748
  171  166   1       0.3325   0.1573
  171  168   1       0.2936   0.0478
  171  170   1       0.3400   0.1119
  171  172   1       0.3000   0.0467
  171  176   1       0.3325   0.1573
  171  178   1       0.2680   0.0478
  171  180   1       0.3325   0.1573
  171  182   1       0.2234   0.0478
  173    0   1       0.1300   0.0000
  173    2   1       0.3000   0.0467
  173    4   1       0.3000   0.0467
  173    6   1       0.3000   0.0467
  173    8   1       0.3000   0.0467
  173   10   1       0.3000   0.0467
  173   12   1       0.3000   0.0467
  173   14   1       0.3000   0.0467
  173   16   1       0.3000   0.0467
  173   18   1       0.3000   0.0467
  173   20   1       0.3000   0.0467
  173   22   1       0.3000   0.0467
  173   24   1       0.3000   0.0527
  173   26   1       0.3000   0.0527
  173   28   1       0.3000   0.0527
  173   30   1       0.3000   0.0527
  173   32   1       0.3000   0.0527
  173   34   1       0.3000   0.0527
  173   36   1       0.3000   0.0527
  173   38   1       0.3000   0.0467
  173   40   1       0.3000   0.0467
  173   42   1       0.3000   0.0467
  173   44   1       0.2826   0.1080
  173   46   1       0.2859   0.0394
  173   48   1       0.1834   0.0200
  173   50   1       0.1834   0.0200
  173   52   1       0.2625   0.0200
  173   54   1       0.2535   0.0200
  173   56   1       0.2446   0.0200
  173   58   1       0.2357   0.0200
  173   60   1       0.2600   0.0195
  173   62   1       0.2555   0.0195
  173   64   1       0.2511   0.0195
  173   66   1       0.1300   0.0000
  173   68   1       0.1834   0.0200
  173   70   1       0.1300   0.0000
  173   72   1       0.2280   0.0200
  173   74   1       0.3393   0.1008
  173   76   1       0.3500   0.0504
  173   78   1       0.2964   0.0084
  173   80   1       0.5754   0.0504
  173   82   1       0.2006   0.1507
  173   84   1       0.2925   0.0657
  173   86   1       0.2925   0.0657
  173   88   1       0.2925   0.0657
  173   90   1       0.2925   0.0657
  173   92   1       0.2925   0.0657
  173   94   1       0.2925   0.0657
  173   96   1       0.2925   0.0657
  173   98   1       0.2780   0.0730
  173  100   1       0.2780   0.0730
  173  102   1       0.2875   0.0621
  173  104   1       0.2833   0.0731
  173  106   1       0.2833   0.0731
  173  108   1       0.2800   0.0657
  173  110   1       0.2780   0.0730
  173  112   1       0.3171   0.0713
  173  114   1       0.3082   0.0797
  173  116   1       0.3082   0.0797
  173  118   1       0.3000   0.0467
  173  120   1       0.1300   0.0000
  173  122   1       0.3668   0.0029
  173  124   1       0.3933   0.0021
  173  132   1       0.2313   0.0216
  173  134   1       0.2280   0.0178
  173  136   1       0.1300   0.0000
  173  138   1       0.2882   0.0643
  173  140   1       0.1300   0.0000
  173  142   1       0.2877   0.0627
  173  144   1       0.1300   0.0000
  173  146   1       0.2860   0.0637
  173  148   1       0.1300   0.0000
  173  150   1       0.2882   0.0779
  173  152   1       0.1300   0.0000
  173  154   1       0.1300   0.0000
  173  156   1       0.1300   0.0000
  173  158   1       0.3000   0.0527
  173  160   1       0.2625   0.0200
  173  162   1       0.3000   0.0467
  173  164   1       0.2780   0.0730
  173  166   1       0.2925   0.0657
  173  168   1       0.2535   0.0200
  173  170   1       0.3000   0.0467
  173  172   1       0.2600   0.0195
  173  176   1       0.2925   0.0657
  173  178   1       0.2280   0.0200
  173  180   1       0.2925   0.0657
  173  182   1       0.1834   0.0200
  174    0   1       0.1782   0.0000
  174    2   1       0.3482   0.5037
  174    4   1       0.3482   0.5037
  174    6   1       0.3482   0.5037
  174    8   1       0.3482   0.5037
  174   10   1       0.3482   0.5037
  174   12   1       0.3482   0.5037
  174   14   1       0.3482   0.5037
  174   16   1       0.3482   0.5037
  174   18   1       0.3482   0.5037
  174   20   1       0.3482   0.5037
  174   22   1       0.3482   0.5037
  174   24   1       0.3482   0.5681
  174   26   1       0.3482   0.5681
  174   28   1       0.3482   0.5681
  174   30   1       0.3482   0.5681
  174   32   1       0.3482   0.5681
  174   34   1       0.3482   0.5681
  174   36   1       0.3482   0.5681
  174   38   1       0.3482   0.5037
  174   40   1       0.3482   0.5037
  174   42   1       0.3482   0.5037
  174   44   1       0.3308   1.1647
  174   46   1       0.3341   0.4242
  174   48   1       0.2316   0.2152
  174   50   1       0.2316   0.2152
  174   52   1       0.3107   0.2152
  174   54   1       0.3017   0.2152
  174   56   1       0.2928   0.2152
  174   58   1       0.2839   0.2152
  174   60   1       0.3082   0.2104
  174   62   1       0.3037   0.2104
  174   64   1       0.2993   0.2104
  174   66   1       0.1782   0.0000
  174   68   1       0.2316   0.2152
  174   70   1       0.1782   0.0000
  174   72   1       0.2762   0.2152
  174   74   1       0.3875   1.0864
  174   76   1       0.3982   0.5432
  174   78   1       0.3446   0.0904
  174   80   1       0.6236   0.5432
  174   82   1       0.2488   1.6247
  174   84   1       0.3407   0.7082
  174   86   1       0.3407   0.7082
  174   88   1       0.3407   0.7082
  174   90   1       0.3407   0.7082
  174   92   1       0.3407   0.7082
  174   94   1       0.3407   0.7082
  174   96   1       0.3407   0.7082
  174   98   1       0.3262   0.7871
  174  100   1       0.3262   0.7871
  174  102   1       0.3357   0.6699
  174  104   1       0.3315   0.7879
  174  106   1       0.3315   0.7879
  174  108   1       0.3282   0.7082
  174  110   1       0.3262   0.7871
  174  112   1       0.3653   0.7682
  174  114   1       0.3564   0.8588
  174  116   1       0.3564   0.8588
  174  118   1       0.3482   0.5037
  174  120   1       0.1782   0.0000
  174  122   1       0.4150   0.0311
  174  124   1       0.4415   0.0224
  174  132   1       0.2795   0.2324
  174  134   1       0.2762   0.1920
  174  136   1       0.1782   0.0000
  174  138   1       0.3364   0.6930
  174  140   1       0.1782   0.0000
  174  142   1       0.3359   0.6763
  174  144   1       0.1782   0.0000
  174  146   1       0.3342   0.6871
  174  148   1       0.1782   0.0000
  174  150   1       0.3364   0.8393
  174  152   1       0.1782   0.0000
  174  154   1       0.1782   0.0000
  174  156   1       0.1782   0.0000
  174  158   1       0.3482   0.5681
  174  160   1       0.3107   0.2152
  174  162   1       0.3482   0.5037
  174  164   1       0.3262   0.7871
  174  166   1       0.3407   0.7082
  174  168   1       0.3017   0.2152
  174  170   1       0.3482   0.5037
  174  172   1       0.3082   0.2104
  174  176   1       0.3407   0.7082
  174  178   1       0.2762   0.2152
  174  180   1       0.3407   0.7082
  174  182   1       0.2316   0.2152
  175    0   1       0.1782   0.0000
  175    2   1       0.3482   0.1908
  175    4   1       0.3482   0.1908
  175    6   1       0.3482   0.1908
  175    8   1       0.3482   0.1908
  175   10   1       0.3482   0.1908
  175   12   1       0.3482   0.1908
  175   14   1       0.3482   0.1908
  175   16   1       0.3482   0.1908
  175   18   1       0.3482   0.1908
  175   20   1       0.3482   0.1908
  175   22   1       0.3482   0.1908
  175   24   1       0.3482   0.2151
  175   26   1       0.3482   0.2151
  175   28   1       0.3482   0.2151
  175   30   1       0.3482   0.2151
  175   32   1       0.3482   0.2151
  175   34   1       0.3482   0.2151
  175   36   1       0.3482   0.2151
  175   38   1       0.3482   0.1908
  175   40   1       0.3482   0.1908
  175   42   1       0.3482   0.1908
  175   44   1       0.3308   0.4411
  175   46   1       0.3341   0.1607
  175   48   1       0.2316   0.0815
  175   50   1       0.2316   0.0815
  175   52   1       0.3107   0.0815
  175   54   1       0.3017   0.0815
  175   56   1       0.2928   0.0815
  175   58   1       0.2839   0.0815
  175   60   1       0.3082   0.0797
  175   62   1       0.3037   0.0797
  175   64   1       0.2993   0.0797
  175   66   1       0.1782   0.0000
  175   68   1       0.2316   0.0815
  175   70   1       0.1782   0.0000
  175   72   1       0.2762   0.0815
  175   74   1       0.3875   0.4114
  175   76   1       0.3982   0.2057
  175   78   1       0.3446   0.0342
  175   80   1       0.6236   0.2057
  175   82   1       0.2488   0.6153
  175   84   1       0.3407   0.2682
  175   86   1       0.3407   0.2682
  175   88   1       0.3407   0.2682
  175   90   1       0.3407   0.2682
  175   92   1       0.3407   0.2682
  175   94   1       0.3407   0.2682
  175   96   1       0.3407   0.2682
  175   98   1       0.3262   0.2981
  175  100   1       0.3262   0.2981
  175  102   1       0.3357   0.2537
  175  104   1       0.3315   0.2984
  175  106   1       0.3315   0.2984
  175  108   1       0.3282   0.2682
  175  110   1       0.3262   0.2981
  175  112   1       0.3653   0.2909
  175  114   1       0.3564   0.3252
  175  116   1       0.3564   0.3252
  175  118   1       0.3482   0.1908
  175  120   1       0.1782   0.0000
  175  122   1       0.4150   0.0118
  175  124   1       0.4415   0.0085
  175  132   1       0.2795   0.0880
  175  134   1       0.2762   0.0727
  175  136   1       0.1782   0.0000
  175  138   1       0.3364   0.2624
  175  140   1       0.1782   0.0000
  175  142   1       0.3359   0.2561
  175  144   1       0.1782   0.0000
  175  146   1       0.3342   0.2602
  175  148   1       0.1782   0.0000
  175  150   1       0.3364   0.3178
  175  152   1       0.1782   0.0000
  175  154   1       0.1782   0.0000
  175  156   1       0.1782   0.0000
  175  158   1       0.3482   0.2151
  175  160   1       0.3107   0.0815
  175  162   1       0.3482   0.1908
  175  164   1       0.3262   0.2981
  175  166   1       0.3407   0.2682
  175  168   1       0.3017   0.0815
  175  170   1       0.3482   0.1908
  175  172   1       0.3082   0.0797
  175  176   1       0.3407   0.2682
  175  178   1       0.2762   0.0815
  175  180   1       0.3407   0.2682
  175  182   1       0.2316   0.0815
  177    0   1       0.1625   0.0000
  177    2   1       0.3325   0.1573
  177    4   1       0.3325   0.1573
  177    6   1       0.3325   0.1573
  177    8   1       0.3325   0.1573
  177   10   1       0.3325   0.1573
  177   12   1       0.3325   0.1573
  177   14   1       0.3325   0.1573
  177   16   1       0.3325   0.1573
  177   18   1       0.3325   0.1573
  177   20   1       0.3325   0.1573
  177   22   1       0.3325   0.1573
  177   24   1       0.3325   0.1774
  177   26   1       0.3325   0.1774
  177   28   1       0.3325   0.1774
  177   30   1       0.3325   0.1774
  177   32   1       0.3325   0.1774
  177   34   1       0.3325   0.1774
  177   36   1       0.3325   0.1774
  177   38   1       0.3325   0.1573
  177   40   1       0.3325   0.1573
  177   42   1       0.3325   0.1573
  177   44   1       0.3151   0.3637
  177   46   1       0.3184   0.1325
  177   48   1       0.2160   0.0672
  177   50   1       0.2160   0.0672
  177   52   1       0.2950   0.0672
  177   54   1       0.2861   0.0672
  177   56   1       0.2772   0.0672
  177   58   1       0.2682   0.0672
  177   60   1       0.2925   0.0657
  177   62   1       0.2880   0.0657
  177   64   1       0.2836   0.0657
  177   66   1       0.1625   0.0000
  177   68   1       0.2160   0.0672
  177   70   1       0.1625   0.0000
  177   72   1       0.2605   0.0672
  177   74   1       0.3719   0.3392
  177   76   1       0.3826   0.1696
  177   78   1       0.3289   0.0282
  177   80   1       0.6079   0.1696
  177   82   1       0.2331   0.5074
  177   84   1       0.3250   0.2212
  177   86   1       0.3250   0.2212
  177   88   1       0.3250   0.2212
  177   90   1       0.3250   0.2212
  177   92   1       0.3250   0.2212
  177   94   1       0.3250   0.2212
  177   96   1       0.3250   0.2212
  177   98   1       0.3105   0.2458
  177  100   1       0.3105   0.2458
  177  102   1       0.3200   0.2092
  177  104   1       0.3158   0.2460
  177  106   1       0.3158   0.2460
  177  108   1       0.3125   0.2212
  177  110   1       0.3105   0.2458
  177  112   1       0.3496   0.2399
  177  114   1       0.3407   0.2682
  177  116   1       0.3407   0.2682
  177  118   1       0.3325   0.1573
  177  120   1       0.1625   0.0000
  177  122   1       0.3993   0.0097
  177  124   1       0.4258   0.0070
  177  132   1       0.2638   0.0726
  177  134   1       0.2605   0.0600
  177  136   1       0.1625   0.0000
  177  138   1       0.3207   0.2164
  177  140   1       0.1625   0.0000
  177  142   1       0.3202   0.2112
  177  144   1       0.1625   0.0000
  177  146   1       0.3185   0.2146
  177  148   1       0.1625   0.0000
  177  150   1       0.3207   0.2621
  177  152   1       0.1625   0.0000
  177  154   1       0.1625   0.0000
  177  156   1       0.1625   0.0000
  177  158   1       0.3325   0.1774
  177  160   1       0.2950   0.0672
  177  162   1       0.3325   0.1573
  177  164   1       0.3105   0.2458
  177  166   1       0.3250   0.2212
  177  168   1       0.2861   0.0672
  177  170   1       0.3325   0.1573
  177  172   1       0.2925   0.0657
  177  176   1       0.3250   0.2212
  177  178   1       0.2605   0.0672
  177  180   1       0.3250   0.2212
  177  182   1       0.2160   0.0672
  179    0   1       0.0980   0.0000
  179    2   1       0.2680   0.0478
  179    4   1       0.2680   0.0478
  179    6   1       0.2680   0.0478
  179    8   1       0.2680   0.0478
  179   10   1       0.2680   0.0478
  179   12   1       0.2680   0.0478
  179   14   1       0.2680   0.0478
  179   16   1       0.2680   0.0478
  179   18   1       0.2680   0.0478
  179   20   1       0.2680   0.0478
  179   22   1       0.2680   0.0478
  179   24   1       0.2680   0.0539
  179   26   1       0.2680   0.0539
  179   28   1       0.2680   0.0539
  179   30   1       0.2680   0.0539
  179   32   1       0.2680   0.0539
  179   34   1       0.2680   0.0539
  179   36   1       0.2680   0.0539
  179   38   1       0.2680   0.0478
  179   40   1       0.2680   0.0478
  179   42   1       0.2680   0.0478
  179   44   1       0.2506   0.1105
  179   46   1       0.2539   0.0403
  179   48   1       0.1515   0.0204
  179   50   1       0.1515   0.0204
  179   52   1       0.2305   0.0204
  179   54   1       0.2216   0.0204
  179   56   1       0.2127   0.0204
  179   58   1       0.2037   0.0204
  179   60   1       0.2280   0.0200
  179   62   1       0.2235   0.0200
  179   64   1       0.2191   0.0200
  179   66   1       0.0980   0.0000
  179   68   1       0.1515   0.0204
  179   70   1       0.0980   0.0000
  179   72   1       0.1960   0.0204
  179   74   1       0.3074   0.1031
  179   76   1       0.3181   0.0515
  179   78   1       0.2644   0.0086
  179   80   1       0.5434   0.0515
  179   82   1       0.1686   0.1542
  179   84   1       0.2605   0.0672
  179   86   1       0.2605   0.0672
  179   88   1       0.2605   0.0672
  179   90   1       0.2605   0.0672
  179   92   1       0.2605   0.0672
  179   94   1       0.2605   0.0672
  179   96   1       0.2605   0.0672
  179   98   1       0.2460   0.0747
  179  100   1       0.2460   0.0747
  179  102   1       0.2555   0.0636
  179  104   1       0.2513   0.0748
  179  106   1       0.2513   0.0748
  179  108   1       0.2480   0.0672
  179  110   1       0.2460   0.0747
  179  112   1       0.2851   0.0729
  179  114   1       0.2762   0.0815
  179  116   1       0.2762   0.0815
  179  118   1       0.2680   0.0478
  179  120   1       0.0980   0.0000
  179  122   1       0.3348   0.0030
  179  124   1       0.3613   0.0021
  179  132   1       0.1993   0.0221
  179  134   1       0.1960   0.0182
  179  136   1       0.0980   0.0000
  179  138   1       0.2562   0.0658
  179  140   1       0.0980   0.0000
  179  142   1       0.2557   0.0642
  179  144   1       0.0980   0.0000
  179  146   1       0.2540   0.0652
  179  148   1       0.0980   0.0000
  179  150   1       0.2562   0.0797
  179  152   1       0.0980   0.0000
  179  154   1       0.0980   0.0000
  179  156   1       0.0980   0.0000
  179  158   1       0.2680   0.0539
  179  160   1       0.2305   0.0204
  179  162   1       0.2680   0.0478
  179  164   1       0.2460   0.0747
  179  166   1       0.2605   0.0672
  179  168   1       0.2216   0.0204
  179  170   1       0.2680   0.0478
  179  172   1       0.2280   0.0200
  179  176   1       0.2605   0.0672
  179  178   1       0.1960   0.0204
  179  180   1       0.2605   0.0672
  179  182   1       0.1515   0.0204
  181    0   1       0.1625   0.0000
  181    2   1       0.3325   0.1573
  181    4   1       0.3325   0.1573
  181    6   1       0.3325   0.1573
  181    8   1       0.3325   0.1573
  181   10   1       0.3325   0.1573
  181   12   1       0.3325   0.1573
  181   14   1       0.3325   0.1573
  181   16   1       0.3325   0.1573
  181   18   1       0.3325   0.1573
  181   20   1       0.3325   0.1573
  181   22   1       0.3325   0.1573
  181   24   1       0.3325   0.1774
  181   26   1       0.3325   0.1774
  181   28   1       0.3325   0.1774
  181   30   1       0.3325   0.1774
  181   32   1       0.3325   0.1774
  181   34   1       0.3325   0.1774
  181   36   1       0.3325   0.1774
  181   38   1       0.3325   0.1573
  181   40   1       0.3325   0.1573
  181   42   1       0.3325   0.1573
  181   44   1       0.3151   0.3637
  181   46   1       0.3184   0.1325
  181   48   1       0.2160   0.0672
  181   50   1       0.2160   0.0672
  181   52   1       0.2950   0.0672
  181   54   1       0.2861   0.0672
  181   56   1       0.2772   0.0672
  181   58   1       0.2682   0.0672
  181   60   1       0.2925   0.0657
  181   62   1       0.2880   0.0657
  181   64   1       0.2836   0.0657
  181   66   1       0.1625   0.0000
  181   68   1       0.2160   0.0672
  181   70   1       0.1625   0.0000
  181   72   1       0.2605   0.0672
  181   74   1       0.3719   0.3392
  181   76   1       0.3826   0.1696
  181   78   1       0.3289   0.0282
  181   80   1       0.6079   0.1696
  181   82   1       0.2331   0.5074
  181   84   1       0.3250   0.2212
  181   86   1       0.3250   0.2212
  181   88   1       0.3250   0.2212
  181   90   1       0.3250   0.2212
  181   92   1       0.3250   0.2212
  181   94   1       0.3250   0.2212
  181   96   1       0.3250   0.2212
  181   98   1       0.3105   0.2458
  181  100   1       0.3105   0.2458
  181  102   1       0.3200   0.2092
  181  104   1       0.3158   0.2460
  181  106   1       0.3158   0.2460
  181  108   1       0.3125   0.2212
  181  110   1       0.3105   0.2458
  181  112   1       0.3496   0.2399
  181  114   1       0.3407   0.2682
  181  116   1       0.3407   0.2682
  181  118   1       0.3325   0.1573
  181  120   1       0.1625   0.0000
  181  122   1       0.3993   0.0097
  181  124   1       0.4258   0.0070
  181  132   1       0.2638   0.0726
  181  134   1       0.2605   0.0600
  181  136   1       0.1625   0.0000
  181  138   1       0.3207   0.2164
  181  140   1       0.1625   0.0000
  181  142   1       0.3202   0.2112
  181  144   1       0.1625   0.0000
  181  146   1       0.3185   0.2146
  181  148   1       0.1625   0.0000
  181  150   1       0.3207   0.2621
  181  152   1       0.1625   0.0000
  181  154   1       0.1625   0.0000
  181  156   1       0.1625   0.0000
  181  158   1       0.3325   0.1774
  181  160   1       0.2950   0.0672
  181  162   1       0.3325   0.1573
  181  164   1       0.3105   0.2458
  181  166   1       0.3250   0.2212
  181  168   1       0.2861   0.0672
  181  170   1       0.3325   0.1573
  181  172   1       0.2925   0.0657
  181  176   1       0.3250   0.2212
  181  178   1       0.2605   0.0672
  181  180   1       0.3250   0.2212
  181  182   1       0.2160   0.0672
  183    0   1       0.0535   0.0000
  183    2   1       0.2234   0.0478
  183    4   1       0.2234   0.0478
  183    6   1       0.2234   0.0478
  183    8   1       0.2234   0.0478
  183   10   1       0.2234   0.0478
  183   12   1       0.2234   0.0478
  183   14   1       0.2234   0.0478
  183   16   1       0.2234   0.0478
  183   18   1       0.2234   0.0478
  183   20   1       0.2234   0.0478
  183   22   1       0.2234   0.0478
  183   24   1       0.2234   0.0539
  183   26   1       0.2234   0.0539
  183   28   1       0.2234   0.0539
  183   30   1       0.2234   0.0539
  183   32   1       0.2234   0.0539
  183   34   1       0.2234   0.0539
  183   36   1       0.2234   0.0539
  183   38   1       0.2234   0.0478
  183   40   1       0.2234   0.0478
  183   42   1       0.2234   0.0478
  183   44   1       0.2061   0.1105
  183   46   1       0.2094   0.0403
  183   48   1       0.1069   0.0204
  183   50   1       0.1069   0.0204
  183   52   1       0.1859   0.0204
  183   54   1       0.1770   0.0204
  183   56   1       0.1681   0.0204
  183   58   1       0.1592   0.0204
  183   60   1       0.1834   0.0200
  183   62   1       0.1790   0.0200
  183   64   1       0.1745   0.0200
  183   66   1       0.0535   0.0000
  183   68   1       0.1069   0.0204
  183   70   1       0.0535   0.0000
  183   72   1       0.1515   0.0204
  183   74   1       0.2628   0.1031
  183   76   1       0.2735   0.0515
  183   78   1       0.2199   0.0086
  183   80   1       0.4989   0.0515
  183   82   1       0.1241   0.1542
  183   84   1       0.2160   0.0672
  183   86   1       0.2160   0.0672
  183   88   1       0.2160   0.0672
  183   90   1       0.2160   0.0672
  183   92   1       0.2160   0.0672
  183   94   1       0.2160   0.0672
  183   96   1       0.2160   0.0672
  183   98   1       0.2014   0.0747
  183  100   1       0.2014   0.0747
  183  102   1       0.2110   0.0636
  183  104   1       0.2068   0.0748
  183  106   1       0.2068   0.0748
  183  108   1       0.2035   0.0672
  183  110   1       0.2014   0.0747
  183  112   1       0.2405   0.0729
  183  114   1       0.2316   0.0815
  183  116   1       0.2316   0.0815
  183  118   1       0.2234   0.0478
  183  120   1       0.0535   0.0000
  183  122   1       0.2903   0.0030
  183  124   1       0.3168   0.0021
  183  132   1       0.1547   0.0221
  183  134   1       0.1515   0.0182
  183  136   1       0.0535   0.0000
  183  138   1       0.2117   0.0658
  183  140   1       0.0535   0.0000
  183  142   1       0.2111   0.0642
  183  144   1       0.0535   0.0000
  183  146   1       0.2095   0.0652
  183  148   1       0.0535   0.0000
  183  150   1       0.2117   0.0797
  183  152   1       0.0535   0.0000
  183  154   1       0.0535   0.0000
  183  156   1       0.0535   0.0000
  183  158   1       0.2234   0.0539
  183  160   1       0.1859   0.0204
  183  162   1       0.2234   0.0478
  183  164   1       0.2014   0.0747
  183  166   1       0.2160   0.0672
  183  168   1       0.1770   0.0204
  183  170   1       0.2234   0.0478
  183  172   1       0.1834   0.0200
  183  176   1       0.2160   0.0672
  183  178   1       0.1515   0.0204
  183  180   1       0.2160   0.0672
  183  182   1       0.1069   0.0204

 [ bondtypes ] 
; i    j  func       b0          kb
 C   C1      1    0.15220  265265.6  ; Amber99Sb-disp
 C1  H1      1    0.10900  284512.0  ; Amber99Sb-disp
 C1  N       1    0.14490  282001.6  ; Amber99Sb-disp
 C1  N3      1    0.14710  307105.6  ; Amber99Sb-disp
 HO  O3      1    0.09600  462750.4  ; Amber99Sb-disp
 C8  O3      1    0.14100  267776.0  ; Amber99Sb-disp
 C8  OH      1    0.14100  267776.0  ; Amber99Sb-disp
 CT  C8      1    0.15260  259408.0  ; Amber99Sb-disp
 CT  C9      1    0.15260  259408.0  ; Amber99Sb-disp
 C9  HC      1    0.10900  284512.0  ; Amber99Sb-disp
 C9  H1      1    0.10900  284512.0  ; Amber99Sb-disp
 C9  S       1    0.18100  189953.6  ; Amber99Sb-disp
 C9  C       1    0.15220  265265.6  ; Amber99Sb-disp
 C8  H1      1    0.10900  284512.0  ; Amber99Sb-disp
 C8  HC      1    0.10900  284512.0  ; Amber99Sb-disp
 OW  HW      1    0.09572  462750.4  ; Amber99Sb-disp
 HW  HW      1    0.15136  462750.4  ; Amber99Sb-disp
 C   C       1    0.15250  259408.0  ; Amber99Sb-disp
 C   CA      1    0.14090  392459.2  ; Amber99Sb-disp
 C   CB      1    0.14190  374049.6  ; Amber99Sb-disp
 C   CM      1    0.14440  343088.0  ; Amber99Sb-disp
 C   CT      1    0.15220  265265.6  ; Amber99Sb-disp
 C   N       1    0.13350  410032.0  ; Amber99Sb-disp
 C   N*      1    0.13830  354803.2  ; Amber99Sb-disp
 C   NA      1    0.13880  349782.4  ; Amber99Sb-disp
 C   NC      1    0.13580  382417.6  ; Amber99Sb-disp
 C   O       1    0.12290  476976.0  ; Amber99Sb-disp
 C   OB      1    0.12290  476976.0  ; Amber99Sb-disp
 C   O2      1    0.12500  548940.8  ; Amber99Sb-disp
 C   OH      1    0.13640  376560.0  ; Amber99Sb-disp
 C   OS      1    0.13230  376560.0  ; Amber99Sb-disp
 C   H4      1    0.10800  307105.6  ; Amber99Sb-disp
 C   H5      1    0.10800  307105.6  ; Amber99Sb-disp
 CA  CA      1    0.14000  392459.2  ; Amber99Sb-disp
 CA  CB      1    0.14040  392459.2  ; Amber99Sb-disp
 CA  CM      1    0.14330  357313.6  ; Amber99Sb-disp
 CA  CN      1    0.14000  392459.2  ; Amber99Sb-disp
 CA  CT      1    0.15100  265265.6  ; Amber99Sb-disp
 CA  HA      1    0.10800  307105.6  ; Amber99Sb-disp
 CA  H4      1    0.10800  307105.6  ; Amber99Sb-disp
 CA  N2      1    0.13400  402500.8  ; Amber99Sb-disp
 CA  NA      1    0.13810  357313.6  ; Amber99Sb-disp
 CA  NC      1    0.13390  404174.4  ; Amber99Sb-disp
 CA  OH      1    0.13640  376560.0  ; Amber99Sb-disp
 CB  CB      1    0.13700  435136.0  ; Amber99Sb-disp
 CB  N*      1    0.13740  364844.8  ; Amber99Sb-disp
 CB  NB      1    0.13910  346435.2  ; Amber99Sb-disp
 CB  NC      1    0.13540  385764.8  ; Amber99Sb-disp
 CK  H5      1    0.10800  307105.6  ; Amber99Sb-disp
 CK  N*      1    0.13710  368192.0  ; Amber99Sb-disp
 CK  NB      1    0.13040  442667.2  ; Amber99Sb-disp
 CM  CM      1    0.13500  459403.2  ; Amber99Sb-disp
 CM  CT      1    0.15100  265265.6  ; Amber99Sb-disp
 CM  HA      1    0.10800  307105.6  ; Amber99Sb-disp
 CM  H4      1    0.10800  307105.6  ; Amber99Sb-disp
 CM  H5      1    0.10800  307105.6  ; Amber99Sb-disp
 CM  N*      1    0.13650  374886.4  ; Amber99Sb-disp
 CM  OS      1    0.12400  401664.0  ; Amber99Sb-disp
 CQ  H5      1    0.10800  307105.6  ; Amber99Sb-disp
 CQ  NC      1    0.13240  420073.6  ; Amber99Sb-disp
 CT  CT      1    0.15260  259408.0  ; Amber99Sb-disp
 CT  HC      1    0.10900  284512.0  ; Amber99Sb-disp
 CT  H1      1    0.10900  284512.0  ; Amber99Sb-disp
 CT  H2      1    0.10900  284512.0  ; Amber99Sb-disp
 CT  H3      1    0.10900  284512.0  ; Amber99Sb-disp
 CT  HP      1    0.10900  284512.0  ; Amber99Sb-disp
 CT  N*      1    0.14750  282001.6  ; Amber99Sb-disp
 CT  N2      1    0.14630  282001.6  ; Amber99Sb-disp
 CT  OH      1    0.14100  267776.0  ; Amber99Sb-disp
 CT  OS      1    0.14100  267776.0  ; Amber99Sb-disp
 C*  HC      1    0.10800  307105.6  ; Amber99Sb-disp
 C*  CB      1    0.14590  324678.4  ; Amber99Sb-disp
 C*  CT      1    0.14950  265265.6  ; Amber99Sb-disp
 C*  CW      1    0.13520  456892.8  ; Amber99Sb-disp
 CB  CN      1    0.14190  374049.6  ; Amber99Sb-disp
 CC  CT      1    0.15040  265265.6  ; Amber99Sb-disp
 CC  CV      1    0.13750  428441.6  ; Amber99Sb-disp
 CC  CW      1    0.13710  433462.4  ; Amber99Sb-disp
 CC  NA      1    0.13850  353129.6  ; Amber99Sb-disp
 CC  NB      1    0.13940  343088.0  ; Amber99Sb-disp
 CN  NA      1    0.13800  358150.4  ; Amber99Sb-disp
 CR  H5      1    0.10800  307105.6  ; Amber99Sb-disp
 CR  NA      1    0.13430  399153.6  ; Amber99Sb-disp
 CR  NB      1    0.13350  408358.4  ; Amber99Sb-disp
 CT  N       1    0.14490  282001.6  ; Amber99Sb-disp
 CT  N3      1    0.14710  307105.6  ; Amber99Sb-disp
 CT  S       1    0.18100  189953.6  ; Amber99Sb-disp
 CT  SH      1    0.18100  198321.6  ; Amber99Sb-disp
 CV  H4      1    0.10800  307105.6  ; Amber99Sb-disp
 CV  NB      1    0.13940  343088.0  ; Amber99Sb-disp
 CW  H4      1    0.10800  307105.6  ; Amber99Sb-disp
 CW  NA      1    0.13810  357313.6  ; Amber99Sb-disp
 O2  P       1    0.14800  439320.0  ; Amber99Sb-disp
 OH  P       1    0.16100  192464.0  ; Amber99Sb-disp
 OS  P       1    0.16100  192464.0  ; Amber99Sb-disp
 H   N2      1    0.10100  363171.2  ; Amber99Sb-disp
 H   N*      1    0.10100  363171.2  ; Amber99Sb-disp
 H   NA      1    0.10100  363171.2  ; Amber99Sb-disp
 H   N       1    0.10100  363171.2  ; Amber99Sb-disp
 HB  N       1    0.10100  363171.2  ; Amber99Sb-disp
 H   N3      1    0.10100  363171.2  ; Amber99Sb-disp
 HO  OH      1    0.09600  462750.4  ; Amber99Sb-disp
 HO  OS      1    0.09600  462750.4  ; Amber99Sb-disp
 HS  SH      1    0.13360  229283.2  ; Amber99Sb-disp
 S   S       1    0.20380  138908.8  ; Amber99Sb-disp
 F   CT      1    0.13800  307105.6  ; Amber99Sb-disp
 Cl  CT      1    0.17660  194137.6  ; Amber99Sb-disp
 Br  CT      1    0.19440  133051.2  ; Amber99Sb-disp
 I   CT      1    0.21660  123846.4  ; Amber99Sb-disp
 F   CA      1    0.13590  323004.8  ; Amber99Sb-disp
 Cl  CA      1    0.17270  161502.4  ; Amber99Sb-disp
 I   CA      1    0.20750  143092.8  ; Amber99Sb-disp
 Br  CA      1    0.18900  143929.6  ; Amber99Sb-disp
 C7  CT      1    0.15260  259408.0  ; Amber99Sb-disp
 C   C7      1    0.15220  265265.6  ; Amber99Sb-disp
 C7  H1      1    0.10900  284512.0  ; Amber99Sb-disp
 C7  HP      1    0.10900  284512.0  ; Amber99Sb-disp
 C7  N       1    0.14490  282001.6  ; Amber99Sb-disp
 C7  N3      1    0.14710  307105.6  ; Amber99Sb-disp
 C3  HC      1    0.10900  284512.0  ; Amber99Sb-disp
 C4  HC      1    0.10900  284512.0  ; Amber99Sb-disp
 CT  C3      1    0.15260  259408.0  ; Amber99Sb-disp
 CT  C4      1    0.15260  259408.0  ; Amber99Sb-disp
 C6  O2      1    0.12500  548940.8  ; Amber99Sb-disp
 CC  O2      1    0.12500  548940.8  ; Amber99Sb-disp
 C5  O       1    0.12290  476976.0  ; Amber99Sb-disp
 C5  N       1    0.13350  410032.0  ; Amber99Sb-disp
 C5  CT      1    0.15220  265265.6  ; Amber99Sb-disp
 C6  CT      1    0.15220  265265.6  ; Amber99Sb-disp
 C1  HP      1    0.10900  284512.0  ; Amber99Sb-disp

 [ constrainttypes ] 
; this section is implemented manually from bond * angle values
; constraints for rigid CH3 groups
 MCH3   CT      2    0.166426
 MCH3   S       2    0.193875
 MCH3   MCH3    2    0.092163
; constraints for rigid NH3 groups
 MNH3   CT      2    0.158254
 MNH3   MNH3    2    0.080229
; angle-derived constraints for OH and SH groups in proteins
; The constraint A-C is calculated from the angle A-B-C and bonds A-B, B-C.
  C     HO      2    0.195074
  CA    HO      2    0.195074
  CT    HO      2    0.194132
  CT    HS      2    0.235935

 [ angletypes ] 
;  i    j    k  func       th0       cth
 C1  C   OH     1    110.000  669.440  ; Amber99Sb-disp
 C1  C   O      1    120.400  669.440  ; Amber99Sb-disp
 C1  C   OB     1    120.400  669.440  ; Amber99Sb-disp
 C1  C   O2     1    117.000  585.760  ; Amber99Sb-disp
 C1  C   N      1    116.600  585.760  ; Amber99Sb-disp
 H1  C1  H1     1    109.500  292.880  ; Amber99Sb-disp
 H1  C1  N      1    109.500  418.400  ; Amber99Sb-disp
 H1  C1  N3     1    109.500  418.400  ; Amber99Sb-disp
 C   C1  H1     1    109.500  418.400  ; Amber99Sb-disp
 C   C1  N      1    110.100  527.184  ; Amber99Sb-disp
 C   C1  N3     1    111.200  669.440  ; Amber99Sb-disp
 C   N   C1     1    121.900  418.400  ; Amber99Sb-disp
 C1  N   H      1    118.040  418.400  ; Amber99Sb-disp
 C1  N   HB     1    118.040  418.400  ; Amber99Sb-disp
 C1  N3  H      1    109.500  418.400  ; Amber99Sb-disp
 H1  C8  H1     1    109.500  292.880  ; Amber99Sb-disp
 H1  C8  O3     1    109.500  418.400  ; Amber99Sb-disp
 CT  C8  O3     1    109.500  418.400  ; Amber99Sb-disp
 C8  O3  HO     1    108.500  460.240  ; Amber99Sb-disp
 H1  C8  OH     1    109.500  418.400  ; Amber99Sb-disp
 CT  C8  OH     1    109.500  418.400  ; Amber99Sb-disp
 C8  OH  HO     1    108.500  460.240  ; Amber99Sb-disp
 CT  C8  CT     1    109.500  334.720  ; Amber99Sb-disp
 CT  C8  H1     1    109.500  418.400  ; Amber99Sb-disp
 CT  C8  HC     1    109.500  418.400  ; Amber99Sb-disp
 CT  C9  H1     1    109.500  418.400  ; Amber99Sb-disp
 H1  C9  S      1    109.500  418.400  ; Amber99Sb-disp
 CT  C9  S      1    114.700  418.400  ; Amber99Sb-disp
 C9  S   CT     1     98.900  518.816  ; Amber99Sb-disp
 CT  C9  HC     1    109.500  418.400  ; Amber99Sb-disp
 CT  C9  CT     1    109.500  334.720  ; Amber99Sb-disp
 C9  CT  CT     1    109.500  334.720  ; Amber99Sb-disp
 HC  C9  HC     1    109.500  292.880  ; Amber99Sb-disp
 C9  CT  HC     1    109.500  418.400  ; Amber99Sb-disp
 C9  CT  H1     1    109.500  418.400  ; Amber99Sb-disp
 H1  C9  H1     1    109.500  292.880  ; Amber99Sb-disp
 C9  C   O      1    120.400  669.440  ; Amber99Sb-disp
 C9  C   O2     1    117.000  585.760  ; Amber99Sb-disp
 C9  C   OH     1    110.000  669.440  ; Amber99Sb-disp
 C9  C   N      1    116.600  585.760  ; Amber99Sb-disp
 C   C9  CT     1    111.100  527.184  ; Amber99Sb-disp
 C   C9  HC     1    109.500  418.400  ; Amber99Sb-disp
 C9  CT  N2     1    111.200  669.440  ; Amber99Sb-disp
 C8  CT  N      1    109.700  669.440  ; Amber99Sb-disp
 C   CT  C8     1    111.100  527.184  ; Amber99Sb-disp
 C8  CT  HC     1    109.500  418.400  ; Amber99Sb-disp
 C8  CT  H1     1    109.500  418.400  ; Amber99Sb-disp
 H4  C   N      1    120.000  418.400  ; Amber99Sb-disp
 HW  OW  HW     1    104.520  836.800  ; Amber99Sb-disp
 HW  HW  OW     1    127.740    0.000  ; Amber99Sb-disp
 C   C   O      1    120.000  669.440  ; Amber99Sb-disp
 C   C   OH     1    120.000  669.440  ; Amber99Sb-disp
 CA  C   CA     1    120.000  527.184  ; Amber99Sb-disp
 CA  C   OH     1    120.000  585.760  ; Amber99Sb-disp
 CB  C   NA     1    111.300  585.760  ; Amber99Sb-disp
 CB  C   O      1    128.800  669.440  ; Amber99Sb-disp
 CM  C   NA     1    114.100  585.760  ; Amber99Sb-disp
 CM  C   O      1    125.300  669.440  ; Amber99Sb-disp
 CT  C   O      1    120.400  669.440  ; Amber99Sb-disp
 CT  C   OB     1    120.400  669.440  ; Amber99Sb-disp
 CT  C   O2     1    117.000  585.760  ; Amber99Sb-disp
 CT  C   N      1    116.600  585.760  ; Amber99Sb-disp
 CT  C   CT     1    117.000  527.184  ; Amber99Sb-disp
 CT  C   OS     1    115.000  669.440  ; Amber99Sb-disp
 CT  C   OH     1    110.000  669.440  ; Amber99Sb-disp
 N*  C   NA     1    115.400  585.760  ; Amber99Sb-disp
 N*  C   NC     1    118.600  585.760  ; Amber99Sb-disp
 N*  C   O      1    120.900  669.440  ; Amber99Sb-disp
 NA  C   O      1    120.600  669.440  ; Amber99Sb-disp
 NC  C   O      1    122.500  669.440  ; Amber99Sb-disp
 N   C   O      1    122.900  669.440  ; Amber99Sb-disp
 N   C   OB     1    122.900  669.440  ; Amber99Sb-disp
 O   C   O      1    126.000  669.440  ; Amber99Sb-disp
 O   C   OH     1    120.000  669.440  ; Amber99Sb-disp
 O   C   OS     1    125.000  669.440  ; Amber99Sb-disp
 O2  C   O2     1    126.000  669.440  ; Amber99Sb-disp
 H4  C   C      1    120.000  418.400  ; Amber99Sb-disp
 H4  C   CM     1    115.000  418.400  ; Amber99Sb-disp
 H4  C   CT     1    115.000  418.400  ; Amber99Sb-disp
 H4  C   O      1    120.000  418.400  ; Amber99Sb-disp
 H4  C   OH     1    120.000  418.400  ; Amber99Sb-disp
 H5  C   N      1    120.000  418.400  ; Amber99Sb-disp
 H5  C   O      1    119.000  418.400  ; Amber99Sb-disp
 H5  C   OH     1    107.000  418.400  ; Amber99Sb-disp
 H5  C   OS     1    107.000  418.400  ; Amber99Sb-disp
 C   CA  CA     1    120.000  527.184  ; Amber99Sb-disp
 C   CA  HA     1    120.000  418.400  ; Amber99Sb-disp
 CA  CA  CA     1    120.000  527.184  ; Amber99Sb-disp
 CA  CA  CB     1    120.000  527.184  ; Amber99Sb-disp
 CA  CA  CT     1    120.000  585.760  ; Amber99Sb-disp
 CA  CA  HA     1    120.000  418.400  ; Amber99Sb-disp
 CA  CA  H4     1    120.000  418.400  ; Amber99Sb-disp
 CA  CA  OH     1    120.000  585.760  ; Amber99Sb-disp
 CA  CA  CN     1    120.000  527.184  ; Amber99Sb-disp
 CB  CA  HA     1    120.000  418.400  ; Amber99Sb-disp
 CB  CA  H4     1    120.000  418.400  ; Amber99Sb-disp
 CB  CA  N2     1    123.500  585.760  ; Amber99Sb-disp
 CB  CA  NC     1    117.300  585.760  ; Amber99Sb-disp
 CM  CA  N2     1    120.100  585.760  ; Amber99Sb-disp
 CM  CA  NC     1    121.500  585.760  ; Amber99Sb-disp
 CN  CA  HA     1    120.000  418.400  ; Amber99Sb-disp
 NA  CA  NC     1    123.300  585.760  ; Amber99Sb-disp
 N2  CA  NA     1    116.000  585.760  ; Amber99Sb-disp
 N2  CA  NC     1    119.300  585.760  ; Amber99Sb-disp
 N2  CA  N2     1    120.000  585.760  ; Amber99Sb-disp
 F   CA  CA     1    121.000  585.760  ; Amber99Sb-disp
 Cl  CA  CA     1    118.800  585.760  ; Amber99Sb-disp
 I   CA  CA     1    118.800  585.760  ; Amber99Sb-disp
 C   CB  CB     1    119.200  527.184  ; Amber99Sb-disp
 C   CB  NB     1    130.000  585.760  ; Amber99Sb-disp
 CA  CB  CB     1    117.300  527.184  ; Amber99Sb-disp
 CA  CB  NB     1    132.400  585.760  ; Amber99Sb-disp
 CB  CB  N*     1    106.200  585.760  ; Amber99Sb-disp
 CB  CB  NB     1    110.400  585.760  ; Amber99Sb-disp
 CB  CB  NC     1    127.700  585.760  ; Amber99Sb-disp
 C*  CB  CA     1    134.900  527.184  ; Amber99Sb-disp
 C*  CB  CN     1    108.800  527.184  ; Amber99Sb-disp
 CA  CB  CN     1    116.200  527.184  ; Amber99Sb-disp
 N*  CB  NC     1    126.200  585.760  ; Amber99Sb-disp
 H5  CK  N*     1    123.050  418.400  ; Amber99Sb-disp
 H5  CK  NB     1    123.050  418.400  ; Amber99Sb-disp
 N*  CK  NB     1    113.900  585.760  ; Amber99Sb-disp
 C   CM  CM     1    120.700  527.184  ; Amber99Sb-disp
 C   CM  CT     1    119.700  585.760  ; Amber99Sb-disp
 C   CM  HA     1    119.700  418.400  ; Amber99Sb-disp
 C   CM  H4     1    119.700  418.400  ; Amber99Sb-disp
 CA  CM  CM     1    117.000  527.184  ; Amber99Sb-disp
 CA  CM  HA     1    123.300  418.400  ; Amber99Sb-disp
 CA  CM  H4     1    123.300  418.400  ; Amber99Sb-disp
 CM  CM  CT     1    119.700  585.760  ; Amber99Sb-disp
 CM  CM  HA     1    119.700  418.400  ; Amber99Sb-disp
 CM  CM  H4     1    119.700  418.400  ; Amber99Sb-disp
 CM  CM  N*     1    121.200  585.760  ; Amber99Sb-disp
 CM  CM  OS     1    125.000  669.440  ; Amber99Sb-disp
 H4  CM  N*     1    119.100  418.400  ; Amber99Sb-disp
 H4  CM  OS     1    113.000  418.400  ; Amber99Sb-disp
 HA  CM  HA     1    120.000  292.880  ; Amber99Sb-disp
 HA  CM  CT     1    120.000  418.400  ; Amber99Sb-disp
 NC  CQ  NC     1    129.100  585.760  ; Amber99Sb-disp
 H5  CQ  NC     1    115.450  418.400  ; Amber99Sb-disp
 H1  CT  H1     1    109.500  292.880  ; Amber99Sb-disp
 H1  CT  N*     1    109.500  418.400  ; Amber99Sb-disp
 H1  CT  OH     1    109.500  418.400  ; Amber99Sb-disp
 H1  CT  OS     1    109.500  418.400  ; Amber99Sb-disp
 H1  CT  CM     1    109.500  418.400  ; Amber99Sb-disp
 H1  CT  N      1    109.500  418.400  ; Amber99Sb-disp
 H1  CT  S      1    109.500  418.400  ; Amber99Sb-disp
 H1  CT  SH     1    109.500  418.400  ; Amber99Sb-disp
 H1  CT  N2     1    109.500  418.400  ; Amber99Sb-disp
 H2  CT  H2     1    109.500  292.880  ; Amber99Sb-disp
 H2  CT  N*     1    109.500  418.400  ; Amber99Sb-disp
 H2  CT  OS     1    109.500  418.400  ; Amber99Sb-disp
 HP  CT  HP     1    109.500  292.880  ; Amber99Sb-disp
 HP  CT  N3     1    109.500  418.400  ; Amber99Sb-disp
 HC  CT  HC     1    109.500  292.880  ; Amber99Sb-disp
 HC  CT  CM     1    109.500  418.400  ; Amber99Sb-disp
 C   CT  H1     1    109.500  418.400  ; Amber99Sb-disp
 C   CT  HP     1    109.500  418.400  ; Amber99Sb-disp
 C   CT  HC     1    109.500  418.400  ; Amber99Sb-disp
 C   CT  N      1    110.100  527.184  ; Amber99Sb-disp
 C   CT  N3     1    111.200  669.440  ; Amber99Sb-disp
 C   CT  CT     1    111.100  527.184  ; Amber99Sb-disp
 C   CT  OS     1    109.500  502.080  ; Amber99Sb-disp
 CA  CT  HC     1    109.500  418.400  ; Amber99Sb-disp
 CC  CT  CT     1    113.100  527.184  ; Amber99Sb-disp
 CC  CT  HC     1    109.500  418.400  ; Amber99Sb-disp
 CM  CT  CT     1    111.000  527.184  ; Amber99Sb-disp
 CM  CT  OS     1    109.500  418.400  ; Amber99Sb-disp
 CT  CT  CT     1    109.500  334.720  ; Amber99Sb-disp
 CT  CT  HC     1    109.500  418.400  ; Amber99Sb-disp
 CT  CT  H1     1    109.500  418.400  ; Amber99Sb-disp
 CT  CT  H2     1    109.500  418.400  ; Amber99Sb-disp
 CT  CT  HP     1    109.500  418.400  ; Amber99Sb-disp
 CT  CT  N*     1    109.500  418.400  ; Amber99Sb-disp
 CT  CT  OH     1    109.500  418.400  ; Amber99Sb-disp
 CT  CT  OS     1    109.500  418.400  ; Amber99Sb-disp
 CT  CT  S      1    114.700  418.400  ; Amber99Sb-disp
 CT  CT  SH     1    108.600  418.400  ; Amber99Sb-disp
 CT  CT  CA     1    114.000  527.184  ; Amber99Sb-disp
 CT  CT  N2     1    111.200  669.440  ; Amber99Sb-disp
 CT  CT  N      1    109.700  669.440  ; Amber99Sb-disp
 CT  CT  N3     1    111.200  669.440  ; Amber99Sb-disp
 C*  CT  CT     1    115.600  527.184  ; Amber99Sb-disp
 C*  CT  HC     1    109.500  418.400  ; Amber99Sb-disp
 OS  CT  OS     1    101.000 1338.880  ; Amber99Sb-disp
 OS  CT  N*     1    109.500  418.400  ; Amber99Sb-disp
 F   CT  F      1    109.100  644.336  ; Amber99Sb-disp
 F   CT  H1     1    109.500  418.400  ; Amber99Sb-disp
 F   CT  CT     1    109.000  418.400  ; Amber99Sb-disp
 F   CT  H2     1    109.500  418.400  ; Amber99Sb-disp
 Cl  CT  CT     1    108.500  418.400  ; Amber99Sb-disp
 Cl  CT  H1     1    108.500  418.400  ; Amber99Sb-disp
 I   CT  CT     1    106.000  418.400  ; Amber99Sb-disp
 CT  CC  NA     1    120.000  585.760  ; Amber99Sb-disp
 CT  CC  CV     1    120.000  585.760  ; Amber99Sb-disp
 CT  CC  NB     1    120.000  585.760  ; Amber99Sb-disp
 CV  CC  NA     1    120.000  585.760  ; Amber99Sb-disp
 CW  CC  NA     1    120.000  585.760  ; Amber99Sb-disp
 CW  CC  NB     1    120.000  585.760  ; Amber99Sb-disp
 CT  CC  CW     1    120.000  585.760  ; Amber99Sb-disp
 H5  CR  NA     1    120.000  418.400  ; Amber99Sb-disp
 H5  CR  NB     1    120.000  418.400  ; Amber99Sb-disp
 NA  CR  NA     1    120.000  585.760  ; Amber99Sb-disp
 NA  CR  NB     1    120.000  585.760  ; Amber99Sb-disp
 CC  CV  H4     1    120.000  418.400  ; Amber99Sb-disp
 CC  CV  NB     1    120.000  585.760  ; Amber99Sb-disp
 H4  CV  NB     1    120.000  418.400  ; Amber99Sb-disp
 CC  CW  H4     1    120.000  418.400  ; Amber99Sb-disp
 CC  CW  NA     1    120.000  585.760  ; Amber99Sb-disp
 C*  CW  H4     1    120.000  418.400  ; Amber99Sb-disp
 C*  CW  NA     1    108.700  585.760  ; Amber99Sb-disp
 H4  CW  NA     1    120.000  418.400  ; Amber99Sb-disp
 CB  C*  CT     1    128.600  585.760  ; Amber99Sb-disp
 CB  C*  CW     1    106.400  527.184  ; Amber99Sb-disp
 CT  C*  CW     1    125.000  585.760  ; Amber99Sb-disp
 CA  CN  CB     1    122.700  527.184  ; Amber99Sb-disp
 CA  CN  NA     1    132.800  585.760  ; Amber99Sb-disp
 CB  CN  NA     1    104.400  585.760  ; Amber99Sb-disp
 C   N   CT     1    121.900  418.400  ; Amber99Sb-disp
 C   N   H      1    120.000  418.400  ; Amber99Sb-disp
 C   N   HB     1    120.000  418.400  ; Amber99Sb-disp
 CT  N   H      1    118.040  418.400  ; Amber99Sb-disp
 CT  N   HB     1    118.040  418.400  ; Amber99Sb-disp
 CT  N   CT     1    118.000  418.400  ; Amber99Sb-disp
 H   N   H      1    120.000  292.880  ; Amber99Sb-disp
 C   N*  CM     1    121.600  585.760  ; Amber99Sb-disp
 C   N*  CT     1    117.600  585.760  ; Amber99Sb-disp
 C   N*  H      1    119.200  418.400  ; Amber99Sb-disp
 CB  N*  CK     1    105.400  585.760  ; Amber99Sb-disp
 CB  N*  CT     1    125.800  585.760  ; Amber99Sb-disp
 CB  N*  H      1    125.800  418.400  ; Amber99Sb-disp
 CK  N*  CT     1    128.800  585.760  ; Amber99Sb-disp
 CK  N*  H      1    128.800  418.400  ; Amber99Sb-disp
 CM  N*  CT     1    121.200  585.760  ; Amber99Sb-disp
 CM  N*  H      1    121.200  418.400  ; Amber99Sb-disp
 CA  N2  H      1    120.000  418.400  ; Amber99Sb-disp
 CA  N2  CT     1    123.200  418.400  ; Amber99Sb-disp
 CT  N2  H      1    118.400  418.400  ; Amber99Sb-disp
 H   N2  H      1    120.000  292.880  ; Amber99Sb-disp
 CT  N3  H      1    109.500  418.400  ; Amber99Sb-disp
 CT  N3  CT     1    109.500  418.400  ; Amber99Sb-disp
 H   N3  H      1    109.500  292.880  ; Amber99Sb-disp
 C   NA  C      1    126.400  585.760  ; Amber99Sb-disp
 C   NA  CA     1    125.200  585.760  ; Amber99Sb-disp
 C   NA  H      1    116.800  418.400  ; Amber99Sb-disp
 CA  NA  H      1    118.000  418.400  ; Amber99Sb-disp
 CC  NA  CR     1    120.000  585.760  ; Amber99Sb-disp
 CC  NA  H      1    120.000  418.400  ; Amber99Sb-disp
 CR  NA  CW     1    120.000  585.760  ; Amber99Sb-disp
 CR  NA  H      1    120.000  418.400  ; Amber99Sb-disp
 CW  NA  H      1    120.000  418.400  ; Amber99Sb-disp
 CN  NA  CW     1    111.600  585.760  ; Amber99Sb-disp
 CN  NA  H      1    123.100  418.400  ; Amber99Sb-disp
 CB  NB  CK     1    103.800  585.760  ; Amber99Sb-disp
 CC  NB  CR     1    117.000  585.760  ; Amber99Sb-disp
 CR  NB  CV     1    117.000  585.760  ; Amber99Sb-disp
 C   NC  CA     1    120.500  585.760  ; Amber99Sb-disp
 CA  NC  CB     1    112.200  585.760  ; Amber99Sb-disp
 CA  NC  CQ     1    118.600  585.760  ; Amber99Sb-disp
 CB  NC  CQ     1    111.000  585.760  ; Amber99Sb-disp
 C   OH  HO     1    113.000  418.400  ; Amber99Sb-disp
 CA  OH  HO     1    113.000  418.400  ; Amber99Sb-disp
 CT  OH  HO     1    108.500  460.240  ; Amber99Sb-disp
 HO  OH  P      1    108.500  376.560  ; Amber99Sb-disp
 C   OS  CT     1    117.000  502.080  ; Amber99Sb-disp
 CM  OS  CT     1    117.000  502.080  ; Amber99Sb-disp
 CT  OS  CT     1    109.500  502.080  ; Amber99Sb-disp
 CT  OS  P      1    120.500  836.800  ; Amber99Sb-disp
 P   OS  P      1    120.500  836.800  ; Amber99Sb-disp
 O2  P   OH     1    108.230  376.560  ; Amber99Sb-disp
 O2  P   O2     1    119.900 1171.520  ; Amber99Sb-disp
 O2  P   OS     1    108.230  836.800  ; Amber99Sb-disp
 OH  P   OS     1    102.600  376.560  ; Amber99Sb-disp
 OS  P   OS     1    102.600  376.560  ; Amber99Sb-disp
 CT  S   CT     1     98.900  518.816  ; Amber99Sb-disp
 CT  S   S      1    103.700  569.024  ; Amber99Sb-disp
 CT  SH  HS     1     96.000  359.824  ; Amber99Sb-disp
 HS  SH  HS     1     92.070  292.880  ; Amber99Sb-disp
 C7  C   O      1    120.400  669.440  ; Amber99Sb-disp
 C7  C   OB     1    120.400  669.440  ; Amber99Sb-disp
 C7  C   O2     1    117.000  585.760  ; Amber99Sb-disp
 C7  C   N      1    116.600  585.760  ; Amber99Sb-disp
 H1  C7  H1     1    109.500  292.880  ; Amber99Sb-disp
 H1  C7  N      1    109.500  418.400  ; Amber99Sb-disp
 HP  C7  HP     1    109.500  292.880  ; Amber99Sb-disp
 HP  C7  N3     1    109.500  418.400  ; Amber99Sb-disp
 C   C7  H1     1    109.500  418.400  ; Amber99Sb-disp
 C   C7  HP     1    109.500  418.400  ; Amber99Sb-disp
 C   C7  N      1    110.100  527.184  ; Amber99Sb-disp
 C   C7  N3     1    111.200  669.440  ; Amber99Sb-disp
 C   N   C7     1    121.900  418.400  ; Amber99Sb-disp
 C7  N   H      1    118.040  418.400  ; Amber99Sb-disp
 C7  N   HB     1    118.040  418.400  ; Amber99Sb-disp
 C7  N3  H      1    109.500  418.400  ; Amber99Sb-disp
 C7  N   CT     1    118.000  418.400  ; Amber99Sb-disp
 C7  N3  CT     1    109.500  418.400  ; Amber99Sb-disp
 CT  C7  N3     1    111.200  669.440  ; Amber99Sb-disp
 CT  C7  HP     1    109.500  418.400  ; Amber99Sb-disp
 C7  CT  CT     1    109.500  334.720  ; Amber99Sb-disp
 C7  CT  HC     1    109.500  418.400  ; Amber99Sb-disp
 CT  C7  N      1    109.700  669.440  ; Amber99Sb-disp
 C   C7  CT     1    111.100  527.184  ; Amber99Sb-disp
 CT  C7  H1     1    109.500  418.400  ; Amber99Sb-disp
 CT  C5  O      1    120.400  669.440  ; Amber99Sb-disp
 CT  C6  O2     1    117.000  585.760  ; Amber99Sb-disp
 CT  CC  O2     1    117.000  585.760  ; Amber99Sb-disp
 CT  C5  N      1    116.600  585.760  ; Amber99Sb-disp
 N   C5  O      1    122.900  669.440  ; Amber99Sb-disp
 O2  C6  O2     1    126.000  669.440  ; Amber99Sb-disp
 O2  CC  O2     1    126.000  669.440  ; Amber99Sb-disp
 HC  C3  HC     1    109.500  292.880  ; Amber99Sb-disp
 C5  CT  HC     1    109.500  418.400  ; Amber99Sb-disp
 C6  CT  HC     1    109.500  418.400  ; Amber99Sb-disp
 C5  CT  CT     1    111.100  527.184  ; Amber99Sb-disp
 C6  CT  CT     1    111.100  527.184  ; Amber99Sb-disp
 CT  C4  CT     1    109.500  334.720  ; Amber99Sb-disp
 CT  CT  C4     1    109.500  334.720  ; Amber99Sb-disp
 C4  CT  HC     1    109.500  418.400  ; Amber99Sb-disp
 CT  C4  HC     1    109.500  418.400  ; Amber99Sb-disp
 CT  CT  C3     1    109.500  334.720  ; Amber99Sb-disp
 CT  C3  HC     1    109.500  418.400  ; Amber99Sb-disp
 C3  CT  HC     1    109.500  418.400  ; Amber99Sb-disp
 C5  N   H      1    120.000  418.400  ; Amber99Sb-disp
 C5  N   HB     1    120.000  418.400  ; Amber99Sb-disp
 HP  C1  HP     1    109.500  292.880  ; Amber99Sb-disp
 HP  C1  N3     1    109.500  418.400  ; Amber99Sb-disp
 C   C1  HP     1    109.500  418.400  ; Amber99Sb-disp
 CT  C1  HP     1    109.500  418.400  ; Amber99Sb-disp

[ dihedraltypes ]
C C1 N O 4 180.0 4.60240 2   sC   sC1    sN    sO     4    4.60240   4.602     2
C C1 N OB 4 180.0 4.60240 2   sC   sC1    sN   sOB     4    4.60240   4.602     2
C C1 N H 4 180.0 4.60240 2   sC   sC1    sN    sH     4    4.60240   4.602     2
C C1 N HB 4 180.0 4.60240 2   sC   sC1    sN   sHB     4    4.60240   4.602     2
C9 O C OH 4 180.0 43.93200 2  sC9    sO    sC   sOH     4    43.93200  43.932    2
CB CK N* CT 4 180.0 4.18400 2  sCB   sCK   sN*   sCT     4    4.18400   4.184     2
C CM N* CT 4 180.0 4.18400 2   sC   sCM   sN*   sCT     4    4.18400   4.184     2
CT O C OH 4 180.0 43.93200 2  sCT    sO    sC   sOH     4    43.93200  43.932    2
CT CV CC NA 4 180.0 4.60240 2  sCT   sCV   sCC   sNA     4    4.60240   4.602     2
CT CW CC NB 4 180.0 4.60240 2  sCT   sCW   sCC   sNB     4    4.60240   4.602     2
CT CC CW NB 4 180.0 4.60240 2  sCT   sCC   sCW   sNB     4    4.60240   4.602     2
CT CW CC NA 4 180.0 4.60240 2  sCT   sCW   sCC   sNA     4    4.60240   4.602     2
CB CT C* CW 4 180.0 4.60240 2  sCB   sCT   sC*   sCW     4    4.60240   4.602     2
CA CA CA CT 4 180.0 4.60240 2  sCA   sCA   sCA   sCT     4    4.60240   4.602     2
C CM CM CT 4 180.0 4.60240 2   sC   sCM   sCM   sCT     4    4.60240   4.602     2
CM N2 CA NC 4 180.0 4.60240 2  sCM   sN2   sCA   sNC     4    4.60240   4.602     2
CB N2 CA NC 4 180.0 4.60240 2  sCB   sN2   sCA   sNC     4    4.60240   4.602     2
N2 NA CA NC 4 180.0 4.60240 2  sN2   sNA   sCA   sNC     4    4.60240   4.602     2
CA CA C OH 4 180.0 4.60240 2  sCA   sCA    sC   sOH     4    4.60240   4.602     2
CA CA CA OH 4 180.0 4.60240 2  sCA   sCA   sCA   sOH     4    4.60240   4.602     2
H5 O C OH 4 180.0 4.60240 2  sH5    sO    sC   sOH     4    4.60240   4.602     2
H5 O C OS 4 180.0 4.60240 2  sH5    sO    sC   sOS     4    4.60240   4.602     2
CM CT CM HA 4 180.0 4.60240 2  sCM   sCT   sCM   sHA     4    4.60240   4.602     2
Br CA CA CA 4 180.0 4.60240 2  sBr   sCA   sCA   sCA     4    4.60240   4.602     2
CM H4 C O 4 180.0 4.60240 2  sCM   sH4    sC    sO     4    4.60240   4.602     2
C CT N H 4 180.0 4.60240 2   sC   sCT    sN    sH     4    4.60240   4.602     2
C CT N HB 4 180.0 4.60240 2   sC   sCT    sN   sHB     4    4.60240   4.602     2
C CT N O 4 180.0 4.60240 2   sC   sCT    sN    sO     4    4.60240   4.602     2
C C7 N O 4 180.0 4.60240 2   sC   sC7    sN    sO     4    4.60240   4.602     2
C CT N OB 4 180.0 4.60240 2   sC   sCT    sN   sOB     4    4.60240   4.602     2
C C7 N OB 4 180.0 4.60240 2   sC   sC7    sN   sOB     4    4.60240   4.602     2
C C7 N H 4 180.0 4.60240 2   sC   sC7    sN    sH     4    4.60240   4.602     2
C C7 N HB 4 180.0 4.60240 2   sC   sC7    sN   sHB     4    4.60240   4.602     2
C5 CT N O 4 180.0 4.60240 2  sC5   sCT    sN    sO     4    4.60240   4.602     2
C5 CT N OB 4 180.0 4.60240 2  sC5   sCT    sN   sOB     4    4.60240   4.602     2
C5 CT N H 4 180.0 4.60240 2  sC5   sCT    sN    sH     4    4.60240   4.602     2
C5 CT N HB 4 180.0 4.60240 2  sC5   sCT    sN   sHB     4    4.60240   4.602     2
X CT N C1 4 180.0 4.18400 2    X   sCT    sN   sC1     4    4.18400   4.184     2
X CT N C7 4 180.0 4.18400 2    X   sCT    sN   sC7     4    4.18400   4.184     2
X O2 C6 O2 4 180.0 43.93200 2    X   sO2   sC6   sO2     4    43.93200  43.932    2
X O2 C O2 4 180.0 43.93200 2    X   sO2    sC   sO2     4    43.93200  43.932    2
X N2 CA N2 4 180.0 43.93200 2    X   sN2   sCA   sN2     4    43.93200  43.932    2
X CT N CT 4 180.0 4.18400 2    X   sCT    sN   sCT     4    4.18400   4.184     2
X X C O 4 180.0 43.93200 2    X     X    sC    sO     4    43.93200  43.932    2
X X C OB 4 180.0 43.93200 2    X     X    sC   sOB     4    43.93200  43.932    2
X X N H 4 180.0 4.18400 2    X     X    sN    sH     4    4.18400   4.184     2
X X N2 H 4 180.0 4.18400 2    X     X   sN2    sH     4    4.18400   4.184     2
X X NA H 4 180.0 4.18400 2    X     X   sNA    sH     4    4.18400   4.184     2
X X CA HA 4 180.0 4.60240 2    X     X   sCA   sHA     4    4.60240   4.602     2
X X CW H4 4 180.0 4.60240 2    X     X   sCW   sH4     4    4.60240   4.602     2
X X CR H5 4 180.0 4.60240 2    X     X   sCR   sH5     4    4.60240   4.602     2
X X CV H4 4 180.0 4.60240 2    X     X   sCV   sH4     4    4.60240   4.602     2
X X CQ H5 4 180.0 4.60240 2    X     X   sCQ   sH5     4    4.60240   4.602     2
X X CK H5 4 180.0 4.60240 2    X     X   sCK   sH5     4    4.60240   4.602     2
X X CM H4 4 180.0 4.60240 2    X     X   sCM   sH4     4    4.60240   4.602     2
X X CM HA 4 180.0 4.60240 2    X     X   sCM   sHA     4    4.60240   4.602     2
X X CA H4 4 180.0 4.60240 2    X     X   sCA   sH4     4    4.60240   4.602     2
X X CA H5 4 180.0 4.60240 2    X     X   sCA   sH5     4    4.60240   4.602     2
X X C5 O 4 180.0 43.93200 2    X     X   sC5    sO     4    43.93200  43.932    2
C8 CT C N 9 0.0 0.83680 1  sC8   sCT    sC    sN     9    0.83680   0.837     1
C8 CT C N 9 0.0 0.83680 2  sC8   sCT    sC    sN     9    0.83680   0.837     2
C8 CT C N 9 0.0 1.67360 3  sC8   sCT    sC    sN     9    1.67360   1.674     3
C8 CT N C 9 0.0 8.36800 1  sC8   sCT    sN    sC     9    8.36800   8.368     1
C8 CT N C 9 0.0 8.36800 2  sC8   sCT    sN    sC     9    8.36800   8.368     2
C8 CT N C 9 0.0 1.67360 3  sC8   sCT    sN    sC     9    1.67360   1.674     3
C CT C8 O3 9 180.0 4.18400 1   sC   sCT   sC8   sO3     9    4.18400   4.184     1
C CT C8 OH 9 180.0 3.76560 1   sC   sCT   sC8   sOH     9    3.76560   3.766     1
C CT CT C4 9 0.0 2.39074 1   sC   sCT   sCT   sC4     9    2.39074   2.391     1
C CT CT C4 9 180.0 1.49913 2   sC   sCT   sCT   sC4     9    1.49913   1.499     2
C CT CT C4 9 0.0 0.56400 3   sC   sCT   sCT   sC4     9    0.56400   0.564     3
C CT CT C5 9 0.0 0.71421 1   sC   sCT   sCT   sC5     9    0.71421   0.714     1
C CT CT C5 9 180.0 2.49241 2   sC   sCT   sCT   sC5     9    2.49241   2.492     2
C CT CT C5 9 0.0 0.49580 3   sC   sCT   sCT   sC5     9    0.49580   0.496     3
C CT CT C5 9 180.0 1.74556 4   sC   sCT   sCT   sC5     9    1.74556   1.746     4
C CT CT C5 9 0.0 0.43597 5   sC   sCT   sCT   sC5     9    0.43597   0.436     5
C CT CT C5 9 180.0 0.42142 6   sC   sCT   sCT   sC5     9    0.42142   0.421     6
C CT CT C* 9 0.0 1.21336 1   sC   sCT   sCT   sC*     9    1.21336   1.213     1
C CT CT C9 9 0.0 1.25520 1   sC   sCT   sCT   sC9     9    1.25520   1.255     1
C CT CT CA 9 0.0 2.17568 1   sC   sCT   sCT   sCA     9    2.17568   2.176     1
C CT CT CC 9 0.0 2.92880 1   sC   sCT   sCT   sCC     9    2.92880   2.929     1
C CT CT SH 9 180.0 0.66944 1   sC   sCT   sCT   sSH     9    0.66944   0.669     1
Cl CT CT Cl 9 180.0 1.88280 1  sCl   sCT   sCT   sCl     9    1.88280   1.883     1
CM CM C O 9 180.0 9.10020 2  sCM   sCM    sC    sO     9    9.10020   9.100     2
CM CM C O 9 0.0 1.25520 3  sCM   sCM    sC    sO     9    1.25520   1.255     3
C N C1 C 9 0.0 0.35267 1   sC    sN   sC1    sC     9    0.35267   0.353     1
C N C1 C 9 0.0 1.59541 2   sC    sN   sC1    sC     9    1.59541   1.595     2
C N C1 C 9 180.0 0.08381 3   sC    sN   sC1    sC     9    0.08381   0.084     3
C N C1 C 9 0.0 0.32396 4   sC    sN   sC1    sC     9    0.32396   0.324     4
C N C7 C 9 0.0 1.12968 2   sC    sN   sC7    sC     9    1.12968   1.130     2
C N C7 C 9 0.0 1.75728 3   sC    sN   sC7    sC     9    1.75728   1.757     3
C N CT C 9 180.0 0.14226 1   sC    sN   sCT    sC     9    0.14226   0.142     1
C N CT C 9 0.0 1.40164 2   sC    sN   sCT    sC     9    1.40164   1.402     2
C N CT C 9 0.0 2.27610 3   sC    sN   sCT    sC     9    2.27610   2.276     3
C N CT C 9 0.0 0.33472 4   sC    sN   sCT    sC     9    0.33472   0.335     4
CT C7 C N 9 0.0 0.83680 1  sCT   sC7    sC    sN     9    0.83680   0.837     1
CT C7 C N 9 0.0 0.83680 2  sCT   sC7    sC    sN     9    0.83680   0.837     2
CT C7 C N 9 0.0 1.67360 3  sCT   sC7    sC    sN     9    1.67360   1.674     3
CT C7 N C 9 0.0 8.36800 1  sCT   sC7    sN    sC     9    8.36800   8.368     1
CT C7 N C 9 0.0 8.36800 2  sCT   sC7    sN    sC     9    8.36800   8.368     2
CT C7 N C 9 0.0 1.67360 3  sCT   sC7    sN    sC     9    1.67360   1.674     3
CT C9 C O2 9 180.0 2.51040 2  sCT   sC9    sC   sO2     9    2.51040   2.510     2
CT C9 C O 9 180.0 2.51040 2  sCT   sC9    sC    sO     9    2.51040   2.510     2
CT C9 C OB 9 180.0 2.51040 2  sCT   sC9    sC   sOB     9    2.51040   2.510     2
CT CM CM CT 9 180.0 27.82360 2  sCT   sCM   sCM   sCT     9    27.82360  27.824    2
CT CM CM CT 9 180.0 7.94960 1  sCT   sCM   sCM   sCT     9    7.94960   7.950     1
CT CT C4 CT 9 0.0 0.62760 3  sCT   sCT   sC4   sCT     9    0.62760   0.628     3
CT CT C5 O 9 180.0 4.18400 1  sCT   sCT   sC5    sO     9    4.18400   4.184     1
CT CT C6 O2 9 180.0 0.77822 4  sCT   sCT   sC6   sO2     9    0.77822   0.778     4
CT CT C6 O2 9 180.0 1.48114 6  sCT   sCT   sC6   sO2     9    1.48114   1.481     6
CT CT C6 O2 9 180.0 3.65263 2  sCT   sCT   sC6   sO2     9    3.65263   3.653     2
CT CT C* CW 9 0.0 5.02080 1  sCT   sCT   sC*   sCW     9    5.02080   5.021     1
CT CT C N 9 0.0 0.83680 1  sCT   sCT    sC    sN     9    0.83680   0.837     1
CT CT C N 9 0.0 0.83680 2  sCT   sCT    sC    sN     9    0.83680   0.837     2
CT CT C N 9 0.0 1.67360 3  sCT   sCT    sC    sN     9    1.67360   1.674     3
CT CT CT C3 9 0.0 0.62760 3  sCT   sCT   sCT   sC3     9    0.62760   0.628     3
CT CT CT C7 9 0.0 0.75312 3  sCT   sCT   sCT   sC7     9    0.75312   0.753     3
CT CT CT C7 9 180.0 0.83680 1  sCT   sCT   sCT   sC7     9    0.83680   0.837     1
CT CT CT C7 9 180.0 1.04600 2  sCT   sCT   sCT   sC7     9    1.04600   1.046     2
CT CT CT CT 9 0.0 0.62760 3  sCT   sCT   sCT   sCT     9    0.62760   0.628     3
CT CT N C 9 0.0 1.67360 3  sCT   sCT    sN    sC     9    1.67360   1.674     3
CT CT N C 9 0.0 8.36800 1  sCT   sCT    sN    sC     9    8.36800   8.368     1
CT CT N C 9 0.0 8.36800 2  sCT   sCT    sN    sC     9    8.36800   8.368     2
CT CT OS C 9 0.0 1.60247 3  sCT   sCT   sOS    sC     9    1.60247   1.602     3
CT CT OS C 9 180.0 3.34720 1  sCT   sCT   sOS    sC     9    3.34720   3.347     1
CT CT OS CT 9 0.0 1.60247 3  sCT   sCT   sOS   sCT     9    1.60247   1.602     3
CT CT OS CT 9 180.0 0.41840 2  sCT   sCT   sOS   sCT     9    0.41840   0.418     2
CT CT SH HS 9 0.0 0.83680 3  sCT   sCT   sSH   sHS     9    0.83680   0.837     3
CT CT SH HS 9 0.0 2.09200 2  sCT   sCT   sSH   sHS     9    2.09200   2.092     2
CT OS CT N* 9 0.0 1.60247 3  sCT   sOS   sCT   sN*     9    1.60247   1.602     3
CT OS CT N* 9 0.0 2.71960 2  sCT   sOS   sCT   sN*     9    2.71960   2.720     2
CT OS CT OS 9 0.0 0.41840 3  sCT   sOS   sCT   sOS     9    0.41840   0.418     3
CT OS CT OS 9 180.0 3.55640 2  sCT   sOS   sCT   sOS     9    3.55640   3.556     2
CT OS CT OS 9 180.0 5.64840 1  sCT   sOS   sCT   sOS     9    5.64840   5.648     1
CT S S CT 9 0.0 14.64400 2  sCT    sS    sS   sCT     9    14.64400  14.644    2
CT S S CT 9 0.0 2.51040 3  sCT    sS    sS   sCT     9    2.51040   2.510     3
F CT CT F 9 180.0 5.02080 1   sF   sCT   sCT    sF     9    5.02080   5.021     1
H1 C1 C O 9 0.0 3.34720 1  sH1   sC1    sC    sO     9    3.34720   3.347     1
H1 C1 C O 9 180.0 0.33472 3  sH1   sC1    sC    sO     9    0.33472   0.335     3
H1 C7 C O 9 0.0 3.34720 1  sH1   sC7    sC    sO     9    3.34720   3.347     1
H1 C7 C O 9 180.0 0.33472 3  sH1   sC7    sC    sO     9    0.33472   0.335     3
H1 CT C O 9 0.0 3.34720 1  sH1   sCT    sC    sO     9    3.34720   3.347     1
H1 CT C O 9 180.0 0.33472 3  sH1   sCT    sC    sO     9    0.33472   0.335     3
H1 C1 C OB 9 0.0 3.34720 1  sH1   sC1    sC   sOB     9    3.34720   3.347     1
H1 C1 C OB 9 180.0 0.33472 3  sH1   sC1    sC   sOB     9    0.33472   0.335     3
H1 C7 C OB 9 0.0 3.34720 1  sH1   sC7    sC   sOB     9    3.34720   3.347     1
H1 C7 C OB 9 180.0 0.33472 3  sH1   sC7    sC   sOB     9    0.33472   0.335     3
H1 CT C OB 9 0.0 3.34720 1  sH1   sCT    sC   sOB     9    3.34720   3.347     1
H1 CT C OB 9 180.0 0.33472 3  sH1   sCT    sC   sOB     9    0.33472   0.335     3
H1 CT CT Br 9 0.0 2.30120 1  sH1   sCT   sCT   sBr     9    2.30120   2.301     1
H1 CT CT Cl 9 0.0 1.04600 1  sH1   sCT   sCT   sCl     9    1.04600   1.046     1
H1 CT CT F 9 0.0 0.79496 1  sH1   sCT   sCT    sF     9    0.79496   0.795     1
H1 CT CT OH 9 0.0 1.04600 1  sH1   sCT   sCT   sOH     9    1.04600   1.046     1
H1 CT CT OS 9 0.0 1.04600 1  sH1   sCT   sCT   sOS     9    1.04600   1.046     1
HC C3 CT CT 9 0.0 0.66944 3  sHC   sC3   sCT   sCT     9    0.66944   0.669     3
HC C4 CT CT 9 0.0 0.66944 3  sHC   sC4   sCT   sCT     9    0.66944   0.669     3
HC C4 CT HC 9 0.0 0.62760 3  sHC   sC4   sCT   sHC     9    0.62760   0.628     3
HC CT C3 HC 9 0.0 0.62760 3  sHC   sCT   sC3   sHC     9    0.62760   0.628     3
HC CT C4 CT 9 0.0 0.66944 3  sHC   sCT   sC4   sCT     9    0.66944   0.669     3
HC CT C5 O 9 0.0 3.34720 1  sHC   sCT   sC5    sO     9    3.34720   3.347     1
HC CT C5 O 9 180.0 0.33472 3  sHC   sCT   sC5    sO     9    0.33472   0.335     3
HC CT CM CM 9 0.0 4.81160 1  sHC   sCT   sCM   sCM     9    4.81160   4.812     1
HC CT CM CM 9 180.0 1.58992 3  sHC   sCT   sCM   sCM     9    1.58992   1.590     3
HC CT C O 9 0.0 3.34720 1  sHC   sCT    sC    sO     9    3.34720   3.347     1
HC CT C O 9 180.0 0.33472 3  sHC   sCT    sC    sO     9    0.33472   0.335     3
HC CT C OB 9 0.0 3.34720 1  sHC   sCT    sC   sOB     9    3.34720   3.347     1
HC CT C OB 9 180.0 0.33472 3  sHC   sCT    sC   sOB     9    0.33472   0.335     3
HC CT CT Br 9 0.0 2.30120 1  sHC   sCT   sCT   sBr     9    2.30120   2.301     1
HC CT CT C3 9 0.0 0.66944 3  sHC   sCT   sCT   sC3     9    0.66944   0.669     3
HC CT CT C4 9 0.0 0.66944 3  sHC   sCT   sCT   sC4     9    0.66944   0.669     3
HC CT CT C7 9 0.0 0.66944 3  sHC   sCT   sCT   sC7     9    0.66944   0.669     3
HC CT CT Cl 9 0.0 1.04600 1  sHC   sCT   sCT   sCl     9    1.04600   1.046     1
HC CT CT CT 9 0.0 0.66944 3  sHC   sCT   sCT   sCT     9    0.66944   0.669     3
HC CT CT F 9 0.0 0.79496 1  sHC   sCT   sCT    sF     9    0.79496   0.795     1
HC CT CT HC 9 0.0 0.62760 3  sHC   sCT   sCT   sHC     9    0.62760   0.628     3
HC CT CT OH 9 0.0 1.04600 1  sHC   sCT   sCT   sOH     9    1.04600   1.046     1
HC CT CT OS 9 0.0 1.04600 1  sHC   sCT   sCT   sOS     9    1.04600   1.046     1
H N C5 O 9 0.0 8.36800 1   sH    sN   sC5    sO     9    8.36800   8.368     1
H N C5 O 9 180.0 10.46000 2   sH    sN   sC5    sO     9    10.46000  10.460    2
H N C O 9 0.0 8.36800 1   sH    sN    sC    sO     9    8.36800   8.368     1
H N C O 9 180.0 10.46000 2   sH    sN    sC    sO     9    10.46000  10.460    2
HB N C OB 9 0.0 8.36800 1  sHB    sN    sC   sOB     9    8.36800   8.368     1
HB N C OB 9 180.0 10.46000 2  sHB    sN    sC   sOB     9    10.46000  10.460    2
HO O3 C8 CT 9 0.0 0.35982 1  sHO   sO3   sC8   sCT     9    0.35982   0.360     1
HO O3 C8 CT 9 0.0 0.41840 3  sHO   sO3   sC8   sCT     9    0.41840   0.418     3
HO O3 C8 CT 9 180.0 0.68199 2  sHO   sO3   sC8   sCT     9    0.68199   0.682     2
HO O3 C8 H1 9 0.0 0.41840 3  sHO   sO3   sC8   sH1     9    0.41840   0.418     3
HO OH C8 CT 9 0.0 0.25104 2  sHO   sOH   sC8   sCT     9    0.25104   0.251     2
HO OH C8 CT 9 0.0 0.83680 3  sHO   sOH   sC8   sCT     9    0.83680   0.837     3
HO OH C8 CT 9 0.0 3.13800 1  sHO   sOH   sC8   sCT     9    3.13800   3.138     1
HO OH C O 9 0.0 7.94960 1  sHO   sOH    sC    sO     9    7.94960   7.950     1
HO OH C O 9 180.0 9.62320 2  sHO   sOH    sC    sO     9    9.62320   9.623     2
HO OH CT CT 9 0.0 0.66944 3  sHO   sOH   sCT   sCT     9    0.66944   0.669     3
HO OH CT CT 9 0.0 1.04600 1  sHO   sOH   sCT   sCT     9    1.04600   1.046     1
N3 CT CT C3 9 0.0 0.81630 1  sN3   sCT   sCT   sC3     9    0.81630   0.816     1
N3 CT CT C3 9 180.0 3.53925 2  sN3   sCT   sCT   sC3     9    3.53925   3.539     2
N3 CT CT C6 9 180.0 11.02568 1  sN3   sCT   sCT   sC6     9    11.02568  11.026    1
N3 CT CT C6 9 180.0 4.98022 2  sN3   sCT   sCT   sC6     9    4.98022   4.980     2
N3 CT CT C6 9 180.0 0.02845 3  sN3   sCT   sCT   sC6     9    0.02845   0.028     3
N3 CT CT C6 9 0.0 1.76858 4  sN3   sCT   sCT   sC6     9    1.76858   1.769     4
N3 CT CT C6 9 0.0 0.96943 5  sN3   sCT   sCT   sC6     9    0.96943   0.969     5
N3 CT CT C6 9 180.0 0.89009 6  sN3   sCT   sCT   sC6     9    0.89009   0.890     6
N C1 C N 9 180.0 2.69445 1   sN   sC1    sC    sN     9    2.69445   2.694     1
N C1 C N 9 180.0 6.68666 2   sN   sC1    sC    sN     9    6.68666   6.687     2
N C1 C N 9 180.0 1.67111 3   sN   sC1    sC    sN     9    1.67111   1.671     3
N C1 C N 9 0.0 0.31419 4   sN   sC1    sC    sN     9    0.31419   0.314     4
N C5 CT CT 9 180.0 4.37772 1   sN   sC5   sCT   sCT     9    4.37772   4.378     1
N C5 CT CT 9 180.0 0.75730 2   sN   sC5   sCT   sCT     9    0.75730   0.757     2
N C5 CT CT 9 180.0 0.14811 3   sN   sC5   sCT   sCT     9    0.14811   0.148     3
N C5 CT CT 9 0.0 0.41966 4   sN   sC5   sCT   sCT     9    0.41966   0.420     4
N C5 CT CT 9 0.0 0.54308 5   sN   sC5   sCT   sCT     9    0.54308   0.543     5
N C5 CT CT 9 180.0 0.44373 6   sN   sC5   sCT   sCT     9    0.44373   0.444     6
N C7 C N 9 180.0 1.88280 1   sN   sC7    sC    sN     9    1.88280   1.883     1
N C7 C N 9 180.0 6.61072 2   sN   sC7    sC    sN     9    6.61072   6.611     2
N C7 C N 9 180.0 2.30120 3   sN   sC7    sC    sN     9    2.30120   2.301     3
N CT C8 CT 9 0.0 0.25104 1   sN   sCT   sC8   sCT     9    0.25104   0.251     1
N CT C8 CT 9 180.0 2.09200 2   sN   sCT   sC8   sCT     9    2.09200   2.092     2
N CT C8 CT 9 0.0 0.62760 3   sN   sCT   sC8   sCT     9    0.62760   0.628     3
N CT C8 CT 9 180.0 0.27196 4   sN   sCT   sC8   sCT     9    0.27196   0.272     4
N CT C8 O3 9 180.0 0.33472 1   sN   sCT   sC8   sO3     9    0.33472   0.335     1
N CT C8 OH 9 180.0 1.04600 1   sN   sCT   sC8   sOH     9    1.04600   1.046     1
N CT C N 9 360.0 0.82425 1   sN   sCT    sC    sN     9    0.82425   0.824     1
N CT C N 9 180.0 6.04588 2   sN   sCT    sC    sN     9    6.04588   6.046     2
N CT C N 9 180.0 2.00414 3   sN   sCT    sC    sN     9    2.00414   2.004     3
N CT C N 9 360.0 0.07991 4   sN   sCT    sC    sN     9    0.07991   0.080     4
N CT C N 9 360.0 0.01674 5   sN   sCT    sC    sN     9    0.01674   0.017     5
N CT CT C3 9 0.0 0.81630 1   sN   sCT   sCT   sC3     9    0.81630   0.816     1
N CT CT C3 9 180.0 3.53925 2   sN   sCT   sCT   sC3     9    3.53925   3.539     2
N CT CT C5 9 180.0 2.63592 1   sN   sCT   sCT   sC5     9    2.63592   2.636     1
N CT CT C6 9 180.0 12.05410 1   sN   sCT   sCT   sC6     9    12.05410  12.054    1
N CT CT C6 9 180.0 5.06682 2   sN   sCT   sCT   sC6     9    5.06682   5.067     2
N CT CT C6 9 0.0 0.25941 3   sN   sCT   sCT   sC6     9    0.25941   0.259     3
N CT CT C6 9 0.0 1.02508 4   sN   sCT   sCT   sC6     9    1.02508   1.025     4
N CT CT C6 9 0.0 0.54810 5   sN   sCT   sCT   sC6     9    0.54810   0.548     5
N CT CT C6 9 180.0 0.59413 6   sN   sCT   sCT   sC6     9    0.59413   0.594     6
N CT CT C9 9 0.0 0.41840 1   sN   sCT   sCT   sC9     9    0.41840   0.418     1
N CT CT CC 9 180.0 1.67360 1   sN   sCT   sCT   sCC     9    1.67360   1.674     1
N CT CT SH 9 180.0 2.30120 1   sN   sCT   sCT   sSH     9    2.30120   2.301     1
N CT CT SH 9 180.0 2.63592 2   sN   sCT   sCT   sSH     9    2.63592   2.636     2
N CT CT SH 9 180.0 0.25104 3   sN   sCT   sCT   sSH     9    0.25104   0.251     3
N CT CT SH 9 180.0 0.12552 4   sN   sCT   sCT   sSH     9    0.12552   0.126     4
O C OS CT 9 180.0 5.85760 1   sO    sC   sOS   sCT     9    5.85760   5.858     1
O C OS CT 9 180.0 11.29680 2   sO    sC   sOS   sCT     9    11.29680  11.297    2
OH CT CT OH 9 0.0 0.60250 3  sOH   sCT   sCT   sOH     9    0.60250   0.603     3
OH CT CT OH 9 0.0 4.91620 2  sOH   sCT   sCT   sOH     9    4.91620   4.916     2
OH P OS CT 9 0.0 1.04600 3  sOH    sP   sOS   sCT     9    1.04600   1.046     3
OH P OS CT 9 0.0 5.02080 2  sOH    sP   sOS   sCT     9    5.02080   5.021     2
OS CT CT OH 9 0.0 0.60250 3  sOS   sCT   sCT   sOH     9    0.60250   0.603     3
OS CT CT OH 9 0.0 4.91620 2  sOS   sCT   sCT   sOH     9    4.91620   4.916     2
OS CT CT OS 9 0.0 4.91620 2  sOS   sCT   sCT   sOS     9    4.91620   4.916     2
OS CT CT OS 9 0.0 0.60250 3  sOS   sCT   sCT   sOS     9    0.60250   0.603     3
OS CT N* CK 9 0.0 10.46000 1  sOS   sCT   sN*   sCK     9    10.46000  10.460    1
OS CT N* CM 9 0.0 10.46000 1  sOS   sCT   sN*   sCM     9    10.46000  10.460    1
OS P OS CT 9 0.0 5.02080 2  sOS    sP   sOS   sCT     9    5.02080   5.021     2
OS P OS CT 9 0.0 1.04600 3  sOS    sP   sOS   sCT     9    1.04600   1.046     3
N CT CT CA 9 0.0 0.00000 0   sN   sCT   sCT   sCA     9    0.00000   0.000     0
N CT CT C* 9 0.0 0.00000 0   sN   sCT   sCT   sC*     9    0.00000   0.000     0
CT CT C9 S 9 0.0 0.00000 0  sCT   sCT   sC9    sS     9    0.00000   0.000     0
CT CT C9 CT 9 0.0 0.00000 0  sCT   sCT   sC9   sCT     9    0.00000   0.000     0
X C1 N3 X 9 0.0 0.65084 3    X   sC1   sN3     X     9    0.65084   0.651     3
X C5 N X 9 180.0 10.46000 2    X   sC5    sN     X     9    10.46000  10.460    2
X C7 CT X 9 0.0 0.65084 3    X   sC7   sCT     X     9    0.65084   0.651     3
X C7 N3 X 9 0.0 0.65084 3    X   sC7   sN3     X     9    0.65084   0.651     3
X C8 O3 X 9 0.0 0.69873 3    X   sC8   sO3     X     9    0.69873   0.699     3
X C8 OH X 9 0.0 0.69873 3    X   sC8   sOH     X     9    0.69873   0.699     3
X C9 S X 9 0.0 1.39327 3    X   sC9    sS     X     9    1.39327   1.393     3
X CA CA X 9 180.0 15.16700 2    X   sCA   sCA     X     9    15.16700  15.167    2
X CA CB X 9 180.0 14.64400 2    X   sCA   sCB     X     9    14.64400  14.644    2
X CA CM X 9 180.0 10.66920 2    X   sCA   sCM     X     9    10.66920  10.669    2
X CA CN X 9 180.0 15.16700 2    X   sCA   sCN     X     9    15.16700  15.167    2
X CA N2 X 9 180.0 10.04160 2    X   sCA   sN2     X     9    10.04160  10.042    2
X CA NA X 9 180.0 6.27600 2    X   sCA   sNA     X     9    6.27600   6.276     2
X CA NC X 9 180.0 20.08320 2    X   sCA   sNC     X     9    20.08320  20.083    2
X CA OH X 9 180.0 3.76560 2    X   sCA   sOH     X     9    3.76560   3.766     2
X CB CB X 9 180.0 22.80280 2    X   sCB   sCB     X     9    22.80280  22.803    2
X CB CN X 9 180.0 12.55200 2    X   sCB   sCN     X     9    12.55200  12.552    2
X CB NB X 9 180.0 10.66920 2    X   sCB   sNB     X     9    10.66920  10.669    2
X CB NC X 9 180.0 17.36360 2    X   sCB   sNC     X     9    17.36360  17.364    2
X CB N* X 9 180.0 6.90360 2    X   sCB   sN*     X     9    6.90360   6.904     2
X C CA X 9 180.0 15.16700 2    X    sC   sCA     X     9    15.16700  15.167    2
X C CB X 9 180.0 12.55200 2    X    sC   sCB     X     9    12.55200  12.552    2
X C* CB X 9 180.0 7.00820 2    X   sC*   sCB     X     9    7.00820   7.008     2
X CC CV X 9 180.0 21.54760 2    X   sCC   sCV     X     9    21.54760  21.548    2
X CC CW X 9 180.0 22.48900 2    X   sCC   sCW     X     9    22.48900  22.489    2
X C CM X 9 180.0 9.10020 2    X    sC   sCM     X     9    9.10020   9.100     2
X CC NA X 9 180.0 5.85760 2    X   sCC   sNA     X     9    5.85760   5.858     2
X CC NB X 9 180.0 10.04160 2    X   sCC   sNB     X     9    10.04160  10.042    2
X C* CW X 9 180.0 27.30060 2    X   sC*   sCW     X     9    27.30060  27.301    2
X C C X 9 180.0 15.16700 2    X    sC    sC     X     9    15.16700  15.167    2
X CK NB X 9 180.0 41.84000 2    X   sCK   sNB     X     9    41.84000  41.840    2
X CK N* X 9 180.0 7.11280 2    X   sCK   sN*     X     9    7.11280   7.113     2
X CM CM X 9 180.0 27.82360 2    X   sCM   sCM     X     9    27.82360  27.824    2
X CM N* X 9 180.0 7.74040 2    X   sCM   sN*     X     9    7.74040   7.740     2
X CM OS X 9 180.0 4.39320 2    X   sCM   sOS     X     9    4.39320   4.393     2
X C NA X 9 180.0 5.64840 2    X    sC   sNA     X     9    5.64840   5.648     2
X C NC X 9 180.0 16.73600 2    X    sC   sNC     X     9    16.73600  16.736    2
X CN NA X 9 180.0 6.38060 2    X   sCN   sNA     X     9    6.38060   6.381     2
X C N X 9 180.0 10.46000 2    X    sC    sN     X     9    10.46000  10.460    2
X C N* X 9 180.0 6.06680 2    X    sC   sN*     X     9    6.06680   6.067     2
X C OH X 9 180.0 9.62320 2    X    sC   sOH     X     9    9.62320   9.623     2
X C OS X 9 180.0 11.29680 2    X    sC   sOS     X     9    11.29680  11.297    2
X C O X 9 180.0 11.71520 2    X    sC    sO     X     9    11.71520  11.715    2
X C OB X 9 180.0 11.71520 2    X    sC   sOB     X     9    11.71520  11.715    2
X CQ NC X 9 180.0 28.45120 2    X   sCQ   sNC     X     9    28.45120  28.451    2
X CR NA X 9 180.0 9.72780 2    X   sCR   sNA     X     9    9.72780   9.728     2
X CR NB X 9 180.0 20.92000 2    X   sCR   sNB     X     9    20.92000  20.920    2
X CT C8 X 9 0.0 0.64852 3    X   sCT   sC8     X     9    0.64852   0.649     3
X CT C9 X 9 0.0 0.64852 3    X   sCT   sC9     X     9    0.64852   0.649     3
X CT CT X 9 0.0 0.65084 3    X   sCT   sCT     X     9    0.65084   0.651     3
X CT N3 X 9 0.0 0.65084 3    X   sCT   sN3     X     9    0.65084   0.651     3
X CT OH X 9 0.0 0.69733 3    X   sCT   sOH     X     9    0.69733   0.697     3
X CT OS X 9 0.0 1.60387 3    X   sCT   sOS     X     9    1.60387   1.604     3
X CT SH X 9 0.0 1.04600 3    X   sCT   sSH     X     9    1.04600   1.046     3
X CT S X 9 0.0 1.39467 3    X   sCT    sS     X     9    1.39467   1.395     3
X CV NB X 9 180.0 10.04160 2    X   sCV   sNB     X     9    10.04160  10.042    2
X CW NA X 9 180.0 6.27600 2    X   sCW   sNA     X     9    6.27600   6.276     2
X OH P X 9 0.0 1.04600 3    X   sOH    sP     X     9    1.04600   1.046     3
X OS P X 9 0.0 1.04600 3    X   sOS    sP     X     9    1.04600   1.046     3
X C1 N X 9 0.0 0.00000 0    X   sC1    sN     X     9    0.00000   0.000     0
X C C1 X 9 0.0 0.00000 0    X    sC   sC1     X     9    0.00000   0.000     0
X C C9 X 9 0.0 0.00000 0    X    sC   sC9     X     9    0.00000   0.000     0
X C CT X 9 0.0 0.00000 0    X    sC   sCT     X     9    0.00000   0.000     0
X CA CT X 9 0.0 0.00000 0    X   sCA   sCT     X     9    0.00000   0.000     0
X CC CT X 9 0.0 0.00000 0    X   sCC   sCT     X     9    0.00000   0.000     0
X CM CT X 9 0.0 0.00000 0    X   sCM   sCT     X     9    0.00000   0.000     0
X CT N X 9 0.0 0.00000 0    X   sCT    sN     X     9    0.00000   0.000     0
X CT N* X 9 0.0 0.00000 0    X   sCT   sN*     X     9    0.00000   0.000     0
X CT N2 X 9 0.0 0.00000 0    X   sCT   sN2     X     9    0.00000   0.000     0
X C* CT X 9 0.0 0.00000 0    X   sC*   sCT     X     9    0.00000   0.000     0
X C7 N X 9 0.0 0.00000 0    X   sC7    sN     X     9    0.00000   0.000     0
X C C7 X 9 0.0 0.00000 0    X    sC   sC7     X     9    0.00000   0.000     0
X C5 CT X 9 0.0 0.00000 0    X   sC5   sCT     X     9    0.00000   0.000     0
X C6 CT X 9 0.0 0.00000 0    X   sC6   sCT     X     9    0.00000   0.000     0
C C1 N O 4 180.0 4.60240 2   sC   sC1    sN    sO     4    4.60240   4.279     2
C C1 N OB 4 180.0 4.60240 2   sC   sC1    sN   sOB     4    4.60240   4.279     2
C C1 N H 4 180.0 4.60240 2   sC   sC1    sN    sH     4    4.60240   4.279     2
C C1 N HB 4 180.0 4.60240 2   sC   sC1    sN   sHB     4    4.60240   4.279     2
C9 O C OH 4 180.0 43.93200 2  sC9    sO    sC   sOH     4    43.93200  40.840    2
CB CK N* CT 4 180.0 4.18400 2  sCB   sCK   sN*   sCT     4    4.18400   3.890     2
C CM N* CT 4 180.0 4.18400 2   sC   sCM   sN*   sCT     4    4.18400   3.890     2
CT O C OH 4 180.0 43.93200 2  sCT    sO    sC   sOH     4    43.93200  40.840    2
CT CV CC NA 4 180.0 4.60240 2  sCT   sCV   sCC   sNA     4    4.60240   4.279     2
CT CW CC NB 4 180.0 4.60240 2  sCT   sCW   sCC   sNB     4    4.60240   4.279     2
CT CC CW NB 4 180.0 4.60240 2  sCT   sCC   sCW   sNB     4    4.60240   4.279     2
CT CW CC NA 4 180.0 4.60240 2  sCT   sCW   sCC   sNA     4    4.60240   4.279     2
CB CT C* CW 4 180.0 4.60240 2  sCB   sCT   sC*   sCW     4    4.60240   4.279     2
CA CA CA CT 4 180.0 4.60240 2  sCA   sCA   sCA   sCT     4    4.60240   4.279     2
C CM CM CT 4 180.0 4.60240 2   sC   sCM   sCM   sCT     4    4.60240   4.279     2
CM N2 CA NC 4 180.0 4.60240 2  sCM   sN2   sCA   sNC     4    4.60240   4.279     2
CB N2 CA NC 4 180.0 4.60240 2  sCB   sN2   sCA   sNC     4    4.60240   4.279     2
N2 NA CA NC 4 180.0 4.60240 2  sN2   sNA   sCA   sNC     4    4.60240   4.279     2
CA CA C OH 4 180.0 4.60240 2  sCA   sCA    sC   sOH     4    4.60240   4.279     2
CA CA CA OH 4 180.0 4.60240 2  sCA   sCA   sCA   sOH     4    4.60240   4.279     2
H5 O C OH 4 180.0 4.60240 2  sH5    sO    sC   sOH     4    4.60240   4.279     2
H5 O C OS 4 180.0 4.60240 2  sH5    sO    sC   sOS     4    4.60240   4.279     2
CM CT CM HA 4 180.0 4.60240 2  sCM   sCT   sCM   sHA     4    4.60240   4.279     2
Br CA CA CA 4 180.0 4.60240 2  sBr   sCA   sCA   sCA     4    4.60240   4.279     2
CM H4 C O 4 180.0 4.60240 2  sCM   sH4    sC    sO     4    4.60240   4.279     2
C CT N H 4 180.0 4.60240 2   sC   sCT    sN    sH     4    4.60240   4.279     2
C CT N HB 4 180.0 4.60240 2   sC   sCT    sN   sHB     4    4.60240   4.279     2
C CT N O 4 180.0 4.60240 2   sC   sCT    sN    sO     4    4.60240   4.279     2
C C7 N O 4 180.0 4.60240 2   sC   sC7    sN    sO     4    4.60240   4.279     2
C CT N OB 4 180.0 4.60240 2   sC   sCT    sN   sOB     4    4.60240   4.279     2
C C7 N OB 4 180.0 4.60240 2   sC   sC7    sN   sOB     4    4.60240   4.279     2
C C7 N H 4 180.0 4.60240 2   sC   sC7    sN    sH     4    4.60240   4.279     2
C C7 N HB 4 180.0 4.60240 2   sC   sC7    sN   sHB     4    4.60240   4.279     2
C5 CT N O 4 180.0 4.60240 2  sC5   sCT    sN    sO     4    4.60240   4.279     2
C5 CT N OB 4 180.0 4.60240 2  sC5   sCT    sN   sOB     4    4.60240   4.279     2
C5 CT N H 4 180.0 4.60240 2  sC5   sCT    sN    sH     4    4.60240   4.279     2
C5 CT N HB 4 180.0 4.60240 2  sC5   sCT    sN   sHB     4    4.60240   4.279     2
X CT N C1 4 180.0 4.18400 2    X   sCT    sN   sC1     4    4.18400   3.890     2
X CT N C7 4 180.0 4.18400 2    X   sCT    sN   sC7     4    4.18400   3.890     2
X O2 C6 O2 4 180.0 43.93200 2    X   sO2   sC6   sO2     4    43.93200  40.840    2
X O2 C O2 4 180.0 43.93200 2    X   sO2    sC   sO2     4    43.93200  40.840    2
X N2 CA N2 4 180.0 43.93200 2    X   sN2   sCA   sN2     4    43.93200  40.840    2
X CT N CT 4 180.0 4.18400 2    X   sCT    sN   sCT     4    4.18400   3.890     2
X X C O 4 180.0 43.93200 2    X     X    sC    sO     4    43.93200  40.840    2
X X C OB 4 180.0 43.93200 2    X     X    sC   sOB     4    43.93200  40.840    2
X X N H 4 180.0 4.18400 2    X     X    sN    sH     4    4.18400   3.890     2
X X N2 H 4 180.0 4.18400 2    X     X   sN2    sH     4    4.18400   3.890     2
X X NA H 4 180.0 4.18400 2    X     X   sNA    sH     4    4.18400   3.890     2
X X CA HA 4 180.0 4.60240 2    X     X   sCA   sHA     4    4.60240   4.279     2
X X CW H4 4 180.0 4.60240 2    X     X   sCW   sH4     4    4.60240   4.279     2
X X CR H5 4 180.0 4.60240 2    X     X   sCR   sH5     4    4.60240   4.279     2
X X CV H4 4 180.0 4.60240 2    X     X   sCV   sH4     4    4.60240   4.279     2
X X CQ H5 4 180.0 4.60240 2    X     X   sCQ   sH5     4    4.60240   4.279     2
X X CK H5 4 180.0 4.60240 2    X     X   sCK   sH5     4    4.60240   4.279     2
X X CM H4 4 180.0 4.60240 2    X     X   sCM   sH4     4    4.60240   4.279     2
X X CM HA 4 180.0 4.60240 2    X     X   sCM   sHA     4    4.60240   4.279     2
X X CA H4 4 180.0 4.60240 2    X     X   sCA   sH4     4    4.60240   4.279     2
X X CA H5 4 180.0 4.60240 2    X     X   sCA   sH5     4    4.60240   4.279     2
X X C5 O 4 180.0 43.93200 2    X     X   sC5    sO     4    43.93200  40.840    2
C8 CT C N 9 0.0 0.83680 1  sC8   sCT    sC    sN     9    0.83680   0.778     1
C8 CT C N 9 0.0 0.83680 2  sC8   sCT    sC    sN     9    0.83680   0.778     2
C8 CT C N 9 0.0 1.67360 3  sC8   sCT    sC    sN     9    1.67360   1.556     3
C8 CT N C 9 0.0 8.36800 1  sC8   sCT    sN    sC     9    8.36800   7.779     1
C8 CT N C 9 0.0 8.36800 2  sC8   sCT    sN    sC     9    8.36800   7.779     2
C8 CT N C 9 0.0 1.67360 3  sC8   sCT    sN    sC     9    1.67360   1.556     3
C CT C8 O3 9 180.0 4.18400 1   sC   sCT   sC8   sO3     9    4.18400   3.890     1
C CT C8 OH 9 180.0 3.76560 1   sC   sCT   sC8   sOH     9    3.76560   3.501     1
C CT CT C4 9 0.0 2.39074 1   sC   sCT   sCT   sC4     9    2.39074   2.222     1
C CT CT C4 9 180.0 1.49913 2   sC   sCT   sCT   sC4     9    1.49913   1.394     2
C CT CT C4 9 0.0 0.56400 3   sC   sCT   sCT   sC4     9    0.56400   0.524     3
C CT CT C5 9 0.0 0.71421 1   sC   sCT   sCT   sC5     9    0.71421   0.664     1
C CT CT C5 9 180.0 2.49241 2   sC   sCT   sCT   sC5     9    2.49241   2.317     2
C CT CT C5 9 0.0 0.49580 3   sC   sCT   sCT   sC5     9    0.49580   0.461     3
C CT CT C5 9 180.0 1.74556 4   sC   sCT   sCT   sC5     9    1.74556   1.623     4
C CT CT C5 9 0.0 0.43597 5   sC   sCT   sCT   sC5     9    0.43597   0.405     5
C CT CT C5 9 180.0 0.42142 6   sC   sCT   sCT   sC5     9    0.42142   0.392     6
C CT CT C* 9 0.0 1.21336 1   sC   sCT   sCT   sC*     9    1.21336   1.128     1
C CT CT C9 9 0.0 1.25520 1   sC   sCT   sCT   sC9     9    1.25520   1.167     1
C CT CT CA 9 0.0 2.17568 1   sC   sCT   sCT   sCA     9    2.17568   2.023     1
C CT CT CC 9 0.0 2.92880 1   sC   sCT   sCT   sCC     9    2.92880   2.723     1
C CT CT SH 9 180.0 0.66944 1   sC   sCT   sCT   sSH     9    0.66944   0.622     1
Cl CT CT Cl 9 180.0 1.88280 1  sCl   sCT   sCT   sCl     9    1.88280   1.750     1
CM CM C O 9 180.0 9.10020 2  sCM   sCM    sC    sO     9    9.10020   8.460     2
CM CM C O 9 0.0 1.25520 3  sCM   sCM    sC    sO     9    1.25520   1.167     3
C N C1 C 9 0.0 0.35267 1   sC    sN   sC1    sC     9    0.35267   0.328     1
C N C1 C 9 0.0 1.59541 2   sC    sN   sC1    sC     9    1.59541   1.483     2
C N C1 C 9 180.0 0.08381 3   sC    sN   sC1    sC     9    0.08381   0.078     3
C N C1 C 9 0.0 0.32396 4   sC    sN   sC1    sC     9    0.32396   0.301     4
C N C7 C 9 0.0 1.12968 2   sC    sN   sC7    sC     9    1.12968   1.050     2
C N C7 C 9 0.0 1.75728 3   sC    sN   sC7    sC     9    1.75728   1.634     3
C N CT C 9 180.0 0.14226 1   sC    sN   sCT    sC     9    0.14226   0.132     1
C N CT C 9 0.0 1.40164 2   sC    sN   sCT    sC     9    1.40164   1.303     2
C N CT C 9 0.0 2.27610 3   sC    sN   sCT    sC     9    2.27610   2.116     3
C N CT C 9 0.0 0.33472 4   sC    sN   sCT    sC     9    0.33472   0.311     4
CT C7 C N 9 0.0 0.83680 1  sCT   sC7    sC    sN     9    0.83680   0.778     1
CT C7 C N 9 0.0 0.83680 2  sCT   sC7    sC    sN     9    0.83680   0.778     2
CT C7 C N 9 0.0 1.67360 3  sCT   sC7    sC    sN     9    1.67360   1.556     3
CT C7 N C 9 0.0 8.36800 1  sCT   sC7    sN    sC     9    8.36800   7.779     1
CT C7 N C 9 0.0 8.36800 2  sCT   sC7    sN    sC     9    8.36800   7.779     2
CT C7 N C 9 0.0 1.67360 3  sCT   sC7    sN    sC     9    1.67360   1.556     3
CT C9 C O2 9 180.0 2.51040 2  sCT   sC9    sC   sO2     9    2.51040   2.334     2
CT C9 C O 9 180.0 2.51040 2  sCT   sC9    sC    sO     9    2.51040   2.334     2
CT C9 C OB 9 180.0 2.51040 2  sCT   sC9    sC   sOB     9    2.51040   2.334     2
CT CM CM CT 9 180.0 27.82360 2  sCT   sCM   sCM   sCT     9    27.82360  25.865    2
CT CM CM CT 9 180.0 7.94960 1  sCT   sCM   sCM   sCT     9    7.94960   7.390     1
CT CT C4 CT 9 0.0 0.62760 3  sCT   sCT   sC4   sCT     9    0.62760   0.583     3
CT CT C5 O 9 180.0 4.18400 1  sCT   sCT   sC5    sO     9    4.18400   3.890     1
CT CT C6 O2 9 180.0 0.77822 4  sCT   sCT   sC6   sO2     9    0.77822   0.723     4
CT CT C6 O2 9 180.0 1.48114 6  sCT   sCT   sC6   sO2     9    1.48114   1.377     6
CT CT C6 O2 9 180.0 3.65263 2  sCT   sCT   sC6   sO2     9    3.65263   3.396     2
CT CT C* CW 9 0.0 5.02080 1  sCT   sCT   sC*   sCW     9    5.02080   4.667     1
CT CT C N 9 0.0 0.83680 1  sCT   sCT    sC    sN     9    0.83680   0.778     1
CT CT C N 9 0.0 0.83680 2  sCT   sCT    sC    sN     9    0.83680   0.778     2
CT CT C N 9 0.0 1.67360 3  sCT   sCT    sC    sN     9    1.67360   1.556     3
CT CT CT C3 9 0.0 0.62760 3  sCT   sCT   sCT   sC3     9    0.62760   0.583     3
CT CT CT C7 9 0.0 0.75312 3  sCT   sCT   sCT   sC7     9    0.75312   0.700     3
CT CT CT C7 9 180.0 0.83680 1  sCT   sCT   sCT   sC7     9    0.83680   0.778     1
CT CT CT C7 9 180.0 1.04600 2  sCT   sCT   sCT   sC7     9    1.04600   0.972     2
CT CT CT CT 9 0.0 0.62760 3  sCT   sCT   sCT   sCT     9    0.62760   0.583     3
CT CT N C 9 0.0 1.67360 3  sCT   sCT    sN    sC     9    1.67360   1.556     3
CT CT N C 9 0.0 8.36800 1  sCT   sCT    sN    sC     9    8.36800   7.779     1
CT CT N C 9 0.0 8.36800 2  sCT   sCT    sN    sC     9    8.36800   7.779     2
CT CT OS C 9 0.0 1.60247 3  sCT   sCT   sOS    sC     9    1.60247   1.490     3
CT CT OS C 9 180.0 3.34720 1  sCT   sCT   sOS    sC     9    3.34720   3.112     1
CT CT OS CT 9 0.0 1.60247 3  sCT   sCT   sOS   sCT     9    1.60247   1.490     3
CT CT OS CT 9 180.0 0.41840 2  sCT   sCT   sOS   sCT     9    0.41840   0.389     2
CT CT SH HS 9 0.0 0.83680 3  sCT   sCT   sSH   sHS     9    0.83680   0.778     3
CT CT SH HS 9 0.0 2.09200 2  sCT   sCT   sSH   sHS     9    2.09200   1.945     2
CT OS CT N* 9 0.0 1.60247 3  sCT   sOS   sCT   sN*     9    1.60247   1.490     3
CT OS CT N* 9 0.0 2.71960 2  sCT   sOS   sCT   sN*     9    2.71960   2.528     2
CT OS CT OS 9 0.0 0.41840 3  sCT   sOS   sCT   sOS     9    0.41840   0.389     3
CT OS CT OS 9 180.0 3.55640 2  sCT   sOS   sCT   sOS     9    3.55640   3.306     2
CT OS CT OS 9 180.0 5.64840 1  sCT   sOS   sCT   sOS     9    5.64840   5.251     1
CT S S CT 9 0.0 14.64400 2  sCT    sS    sS   sCT     9    14.64400  13.613    2
CT S S CT 9 0.0 2.51040 3  sCT    sS    sS   sCT     9    2.51040   2.334     3
F CT CT F 9 180.0 5.02080 1   sF   sCT   sCT    sF     9    5.02080   4.667     1
H1 C1 C O 9 0.0 3.34720 1  sH1   sC1    sC    sO     9    3.34720   3.112     1
H1 C1 C O 9 180.0 0.33472 3  sH1   sC1    sC    sO     9    0.33472   0.311     3
H1 C7 C O 9 0.0 3.34720 1  sH1   sC7    sC    sO     9    3.34720   3.112     1
H1 C7 C O 9 180.0 0.33472 3  sH1   sC7    sC    sO     9    0.33472   0.311     3
H1 CT C O 9 0.0 3.34720 1  sH1   sCT    sC    sO     9    3.34720   3.112     1
H1 CT C O 9 180.0 0.33472 3  sH1   sCT    sC    sO     9    0.33472   0.311     3
H1 C1 C OB 9 0.0 3.34720 1  sH1   sC1    sC   sOB     9    3.34720   3.112     1
H1 C1 C OB 9 180.0 0.33472 3  sH1   sC1    sC   sOB     9    0.33472   0.311     3
H1 C7 C OB 9 0.0 3.34720 1  sH1   sC7    sC   sOB     9    3.34720   3.112     1
H1 C7 C OB 9 180.0 0.33472 3  sH1   sC7    sC   sOB     9    0.33472   0.311     3
H1 CT C OB 9 0.0 3.34720 1  sH1   sCT    sC   sOB     9    3.34720   3.112     1
H1 CT C OB 9 180.0 0.33472 3  sH1   sCT    sC   sOB     9    0.33472   0.311     3
H1 CT CT Br 9 0.0 2.30120 1  sH1   sCT   sCT   sBr     9    2.30120   2.139     1
H1 CT CT Cl 9 0.0 1.04600 1  sH1   sCT   sCT   sCl     9    1.04600   0.972     1
H1 CT CT F 9 0.0 0.79496 1  sH1   sCT   sCT    sF     9    0.79496   0.739     1
H1 CT CT OH 9 0.0 1.04600 1  sH1   sCT   sCT   sOH     9    1.04600   0.972     1
H1 CT CT OS 9 0.0 1.04600 1  sH1   sCT   sCT   sOS     9    1.04600   0.972     1
HC C3 CT CT 9 0.0 0.66944 3  sHC   sC3   sCT   sCT     9    0.66944   0.622     3
HC C4 CT CT 9 0.0 0.66944 3  sHC   sC4   sCT   sCT     9    0.66944   0.622     3
HC C4 CT HC 9 0.0 0.62760 3  sHC   sC4   sCT   sHC     9    0.62760   0.583     3
HC CT C3 HC 9 0.0 0.62760 3  sHC   sCT   sC3   sHC     9    0.62760   0.583     3
HC CT C4 CT 9 0.0 0.66944 3  sHC   sCT   sC4   sCT     9    0.66944   0.622     3
HC CT C5 O 9 0.0 3.34720 1  sHC   sCT   sC5    sO     9    3.34720   3.112     1
HC CT C5 O 9 180.0 0.33472 3  sHC   sCT   sC5    sO     9    0.33472   0.311     3
HC CT CM CM 9 0.0 4.81160 1  sHC   sCT   sCM   sCM     9    4.81160   4.473     1
HC CT CM CM 9 180.0 1.58992 3  sHC   sCT   sCM   sCM     9    1.58992   1.478     3
HC CT C O 9 0.0 3.34720 1  sHC   sCT    sC    sO     9    3.34720   3.112     1
HC CT C O 9 180.0 0.33472 3  sHC   sCT    sC    sO     9    0.33472   0.311     3
HC CT C OB 9 0.0 3.34720 1  sHC   sCT    sC   sOB     9    3.34720   3.112     1
HC CT C OB 9 180.0 0.33472 3  sHC   sCT    sC   sOB     9    0.33472   0.311     3
HC CT CT Br 9 0.0 2.30120 1  sHC   sCT   sCT   sBr     9    2.30120   2.139     1
HC CT CT C3 9 0.0 0.66944 3  sHC   sCT   sCT   sC3     9    0.66944   0.622     3
HC CT CT C4 9 0.0 0.66944 3  sHC   sCT   sCT   sC4     9    0.66944   0.622     3
HC CT CT C7 9 0.0 0.66944 3  sHC   sCT   sCT   sC7     9    0.66944   0.622     3
HC CT CT Cl 9 0.0 1.04600 1  sHC   sCT   sCT   sCl     9    1.04600   0.972     1
HC CT CT CT 9 0.0 0.66944 3  sHC   sCT   sCT   sCT     9    0.66944   0.622     3
HC CT CT F 9 0.0 0.79496 1  sHC   sCT   sCT    sF     9    0.79496   0.739     1
HC CT CT HC 9 0.0 0.62760 3  sHC   sCT   sCT   sHC     9    0.62760   0.583     3
HC CT CT OH 9 0.0 1.04600 1  sHC   sCT   sCT   sOH     9    1.04600   0.972     1
HC CT CT OS 9 0.0 1.04600 1  sHC   sCT   sCT   sOS     9    1.04600   0.972     1
H N C5 O 9 0.0 8.36800 1   sH    sN   sC5    sO     9    8.36800   7.779     1
H N C5 O 9 180.0 10.46000 2   sH    sN   sC5    sO     9    10.46000  9.724     2
H N C O 9 0.0 8.36800 1   sH    sN    sC    sO     9    8.36800   7.779     1
H N C O 9 180.0 10.46000 2   sH    sN    sC    sO     9    10.46000  9.724     2
HB N C OB 9 0.0 8.36800 1  sHB    sN    sC   sOB     9    8.36800   7.779     1
HB N C OB 9 180.0 10.46000 2  sHB    sN    sC   sOB     9    10.46000  9.724     2
HO O3 C8 CT 9 0.0 0.35982 1  sHO   sO3   sC8   sCT     9    0.35982   0.334     1
HO O3 C8 CT 9 0.0 0.41840 3  sHO   sO3   sC8   sCT     9    0.41840   0.389     3
HO O3 C8 CT 9 180.0 0.68199 2  sHO   sO3   sC8   sCT     9    0.68199   0.634     2
HO O3 C8 H1 9 0.0 0.41840 3  sHO   sO3   sC8   sH1     9    0.41840   0.389     3
HO OH C8 CT 9 0.0 0.25104 2  sHO   sOH   sC8   sCT     9    0.25104   0.233     2
HO OH C8 CT 9 0.0 0.83680 3  sHO   sOH   sC8   sCT     9    0.83680   0.778     3
HO OH C8 CT 9 0.0 3.13800 1  sHO   sOH   sC8   sCT     9    3.13800   2.917     1
HO OH C O 9 0.0 7.94960 1  sHO   sOH    sC    sO     9    7.94960   7.390     1
HO OH C O 9 180.0 9.62320 2  sHO   sOH    sC    sO     9    9.62320   8.946     2
HO OH CT CT 9 0.0 0.66944 3  sHO   sOH   sCT   sCT     9    0.66944   0.622     3
HO OH CT CT 9 0.0 1.04600 1  sHO   sOH   sCT   sCT     9    1.04600   0.972     1
N3 CT CT C3 9 0.0 0.81630 1  sN3   sCT   sCT   sC3     9    0.81630   0.759     1
N3 CT CT C3 9 180.0 3.53925 2  sN3   sCT   sCT   sC3     9    3.53925   3.290     2
N3 CT CT C6 9 180.0 11.02568 1  sN3   sCT   sCT   sC6     9    11.02568  10.250    1
N3 CT CT C6 9 180.0 4.98022 2  sN3   sCT   sCT   sC6     9    4.98022   4.630     2
N3 CT CT C6 9 180.0 0.02845 3  sN3   sCT   sCT   sC6     9    0.02845   0.026     3
N3 CT CT C6 9 0.0 1.76858 4  sN3   sCT   sCT   sC6     9    1.76858   1.644     4
N3 CT CT C6 9 0.0 0.96943 5  sN3   sCT   sCT   sC6     9    0.96943   0.901     5
N3 CT CT C6 9 180.0 0.89009 6  sN3   sCT   sCT   sC6     9    0.89009   0.827     6
N C1 C N 9 180.0 2.69445 1   sN   sC1    sC    sN     9    2.69445   2.505     1
N C1 C N 9 180.0 6.68666 2   sN   sC1    sC    sN     9    6.68666   6.216     2
N C1 C N 9 180.0 1.67111 3   sN   sC1    sC    sN     9    1.67111   1.554     3
N C1 C N 9 0.0 0.31419 4   sN   sC1    sC    sN     9    0.31419   0.292     4
N C5 CT CT 9 180.0 4.37772 1   sN   sC5   sCT   sCT     9    4.37772   4.070     1
N C5 CT CT 9 180.0 0.75730 2   sN   sC5   sCT   sCT     9    0.75730   0.704     2
N C5 CT CT 9 180.0 0.14811 3   sN   sC5   sCT   sCT     9    0.14811   0.138     3
N C5 CT CT 9 0.0 0.41966 4   sN   sC5   sCT   sCT     9    0.41966   0.390     4
N C5 CT CT 9 0.0 0.54308 5   sN   sC5   sCT   sCT     9    0.54308   0.505     5
N C5 CT CT 9 180.0 0.44373 6   sN   sC5   sCT   sCT     9    0.44373   0.413     6
N C7 C N 9 180.0 1.88280 1   sN   sC7    sC    sN     9    1.88280   1.750     1
N C7 C N 9 180.0 6.61072 2   sN   sC7    sC    sN     9    6.61072   6.145     2
N C7 C N 9 180.0 2.30120 3   sN   sC7    sC    sN     9    2.30120   2.139     3
N CT C8 CT 9 0.0 0.25104 1   sN   sCT   sC8   sCT     9    0.25104   0.233     1
N CT C8 CT 9 180.0 2.09200 2   sN   sCT   sC8   sCT     9    2.09200   1.945     2
N CT C8 CT 9 0.0 0.62760 3   sN   sCT   sC8   sCT     9    0.62760   0.583     3
N CT C8 CT 9 180.0 0.27196 4   sN   sCT   sC8   sCT     9    0.27196   0.253     4
N CT C8 O3 9 180.0 0.33472 1   sN   sCT   sC8   sO3     9    0.33472   0.311     1
N CT C8 OH 9 180.0 1.04600 1   sN   sCT   sC8   sOH     9    1.04600   0.972     1
N CT C N 9 360.0 0.82425 1   sN   sCT    sC    sN     9    0.82425   0.766     1
N CT C N 9 180.0 6.04588 2   sN   sCT    sC    sN     9    6.04588   5.620     2
N CT C N 9 180.0 2.00414 3   sN   sCT    sC    sN     9    2.00414   1.863     3
N CT C N 9 360.0 0.07991 4   sN   sCT    sC    sN     9    0.07991   0.074     4
N CT C N 9 360.0 0.01674 5   sN   sCT    sC    sN     9    0.01674   0.016     5
N CT CT C3 9 0.0 0.81630 1   sN   sCT   sCT   sC3     9    0.81630   0.759     1
N CT CT C3 9 180.0 3.53925 2   sN   sCT   sCT   sC3     9    3.53925   3.290     2
N CT CT C5 9 180.0 2.63592 1   sN   sCT   sCT   sC5     9    2.63592   2.450     1
N CT CT C6 9 180.0 12.05410 1   sN   sCT   sCT   sC6     9    12.05410  11.206    1
N CT CT C6 9 180.0 5.06682 2   sN   sCT   sCT   sC6     9    5.06682   4.710     2
N CT CT C6 9 0.0 0.25941 3   sN   sCT   sCT   sC6     9    0.25941   0.241     3
N CT CT C6 9 0.0 1.02508 4   sN   sCT   sCT   sC6     9    1.02508   0.953     4
N CT CT C6 9 0.0 0.54810 5   sN   sCT   sCT   sC6     9    0.54810   0.510     5
N CT CT C6 9 180.0 0.59413 6   sN   sCT   sCT   sC6     9    0.59413   0.552     6
N CT CT C9 9 0.0 0.41840 1   sN   sCT   sCT   sC9     9    0.41840   0.389     1
N CT CT CC 9 180.0 1.67360 1   sN   sCT   sCT   sCC     9    1.67360   1.556     1
N CT CT SH 9 180.0 2.30120 1   sN   sCT   sCT   sSH     9    2.30120   2.139     1
N CT CT SH 9 180.0 2.63592 2   sN   sCT   sCT   sSH     9    2.63592   2.450     2
N CT CT SH 9 180.0 0.25104 3   sN   sCT   sCT   sSH     9    0.25104   0.233     3
N CT CT SH 9 180.0 0.12552 4   sN   sCT   sCT   sSH     9    0.12552   0.117     4
O C OS CT 9 180.0 5.85760 1   sO    sC   sOS   sCT     9    5.85760   5.445     1
O C OS CT 9 180.0 11.29680 2   sO    sC   sOS   sCT     9    11.29680  10.502    2
OH CT CT OH 9 0.0 0.60250 3  sOH   sCT   sCT   sOH     9    0.60250   0.560     3
OH CT CT OH 9 0.0 4.91620 2  sOH   sCT   sCT   sOH     9    4.91620   4.570     2
OH P OS CT 9 0.0 1.04600 3  sOH    sP   sOS   sCT     9    1.04600   0.972     3
OH P OS CT 9 0.0 5.02080 2  sOH    sP   sOS   sCT     9    5.02080   4.667     2
OS CT CT OH 9 0.0 0.60250 3  sOS   sCT   sCT   sOH     9    0.60250   0.560     3
OS CT CT OH 9 0.0 4.91620 2  sOS   sCT   sCT   sOH     9    4.91620   4.570     2
OS CT CT OS 9 0.0 4.91620 2  sOS   sCT   sCT   sOS     9    4.91620   4.570     2
OS CT CT OS 9 0.0 0.60250 3  sOS   sCT   sCT   sOS     9    0.60250   0.560     3
OS CT N* CK 9 0.0 10.46000 1  sOS   sCT   sN*   sCK     9    10.46000  9.724     1
OS CT N* CM 9 0.0 10.46000 1  sOS   sCT   sN*   sCM     9    10.46000  9.724     1
OS P OS CT 9 0.0 5.02080 2  sOS    sP   sOS   sCT     9    5.02080   4.667     2
OS P OS CT 9 0.0 1.04600 3  sOS    sP   sOS   sCT     9    1.04600   0.972     3
N CT CT CA 9 0.0 0.00000 0   sN   sCT   sCT   sCA     9    0.00000   0.000     0
N CT CT C* 9 0.0 0.00000 0   sN   sCT   sCT   sC*     9    0.00000   0.000     0
CT CT C9 S 9 0.0 0.00000 0  sCT   sCT   sC9    sS     9    0.00000   0.000     0
CT CT C9 CT 9 0.0 0.00000 0  sCT   sCT   sC9   sCT     9    0.00000   0.000     0
X C1 N3 X 9 0.0 0.65084 3    X   sC1   sN3     X     9    0.65084   0.605     3
X C5 N X 9 180.0 10.46000 2    X   sC5    sN     X     9    10.46000  9.724     2
X C7 CT X 9 0.0 0.65084 3    X   sC7   sCT     X     9    0.65084   0.605     3
X C7 N3 X 9 0.0 0.65084 3    X   sC7   sN3     X     9    0.65084   0.605     3
X C8 O3 X 9 0.0 0.69873 3    X   sC8   sO3     X     9    0.69873   0.650     3
X C8 OH X 9 0.0 0.69873 3    X   sC8   sOH     X     9    0.69873   0.650     3
X C9 S X 9 0.0 1.39327 3    X   sC9    sS     X     9    1.39327   1.295     3
X CA CA X 9 180.0 15.16700 2    X   sCA   sCA     X     9    15.16700  14.100    2
X CA CB X 9 180.0 14.64400 2    X   sCA   sCB     X     9    14.64400  13.613    2
X CA CM X 9 180.0 10.66920 2    X   sCA   sCM     X     9    10.66920  9.918     2
X CA CN X 9 180.0 15.16700 2    X   sCA   sCN     X     9    15.16700  14.100    2
X CA N2 X 9 180.0 10.04160 2    X   sCA   sN2     X     9    10.04160  9.335     2
X CA NA X 9 180.0 6.27600 2    X   sCA   sNA     X     9    6.27600   5.834     2
X CA NC X 9 180.0 20.08320 2    X   sCA   sNC     X     9    20.08320  18.670    2
X CA OH X 9 180.0 3.76560 2    X   sCA   sOH     X     9    3.76560   3.501     2
X CB CB X 9 180.0 22.80280 2    X   sCB   sCB     X     9    22.80280  21.198    2
X CB CN X 9 180.0 12.55200 2    X   sCB   sCN     X     9    12.55200  11.669    2
X CB NB X 9 180.0 10.66920 2    X   sCB   sNB     X     9    10.66920  9.918     2
X CB NC X 9 180.0 17.36360 2    X   sCB   sNC     X     9    17.36360  16.142    2
X CB N* X 9 180.0 6.90360 2    X   sCB   sN*     X     9    6.90360   6.418     2
X C CA X 9 180.0 15.16700 2    X    sC   sCA     X     9    15.16700  14.100    2
X C CB X 9 180.0 12.55200 2    X    sC   sCB     X     9    12.55200  11.669    2
X C* CB X 9 180.0 7.00820 2    X   sC*   sCB     X     9    7.00820   6.515     2
X CC CV X 9 180.0 21.54760 2    X   sCC   sCV     X     9    21.54760  20.031    2
X CC CW X 9 180.0 22.48900 2    X   sCC   sCW     X     9    22.48900  20.906    2
X C CM X 9 180.0 9.10020 2    X    sC   sCM     X     9    9.10020   8.460     2
X CC NA X 9 180.0 5.85760 2    X   sCC   sNA     X     9    5.85760   5.445     2
X CC NB X 9 180.0 10.04160 2    X   sCC   sNB     X     9    10.04160  9.335     2
X C* CW X 9 180.0 27.30060 2    X   sC*   sCW     X     9    27.30060  25.379    2
X C C X 9 180.0 15.16700 2    X    sC    sC     X     9    15.16700  14.100    2
X CK NB X 9 180.0 41.84000 2    X   sCK   sNB     X     9    41.84000  38.895    2
X CK N* X 9 180.0 7.11280 2    X   sCK   sN*     X     9    7.11280   6.612     2
X CM CM X 9 180.0 27.82360 2    X   sCM   sCM     X     9    27.82360  25.865    2
X CM N* X 9 180.0 7.74040 2    X   sCM   sN*     X     9    7.74040   7.196     2
X CM OS X 9 180.0 4.39320 2    X   sCM   sOS     X     9    4.39320   4.084     2
X C NA X 9 180.0 5.64840 2    X    sC   sNA     X     9    5.64840   5.251     2
X C NC X 9 180.0 16.73600 2    X    sC   sNC     X     9    16.73600  15.558    2
X CN NA X 9 180.0 6.38060 2    X   sCN   sNA     X     9    6.38060   5.932     2
X C N X 9 180.0 10.46000 2    X    sC    sN     X     9    10.46000  9.724     2
X C N* X 9 180.0 6.06680 2    X    sC   sN*     X     9    6.06680   5.640     2
X C OH X 9 180.0 9.62320 2    X    sC   sOH     X     9    9.62320   8.946     2
X C OS X 9 180.0 11.29680 2    X    sC   sOS     X     9    11.29680  10.502    2
X C O X 9 180.0 11.71520 2    X    sC    sO     X     9    11.71520  10.891    2
X C OB X 9 180.0 11.71520 2    X    sC   sOB     X     9    11.71520  10.891    2
X CQ NC X 9 180.0 28.45120 2    X   sCQ   sNC     X     9    28.45120  26.449    2
X CR NA X 9 180.0 9.72780 2    X   sCR   sNA     X     9    9.72780   9.043     2
X CR NB X 9 180.0 20.92000 2    X   sCR   sNB     X     9    20.92000  19.448    2
X CT C8 X 9 0.0 0.64852 3    X   sCT   sC8     X     9    0.64852   0.603     3
X CT C9 X 9 0.0 0.64852 3    X   sCT   sC9     X     9    0.64852   0.603     3
X CT CT X 9 0.0 0.65084 3    X   sCT   sCT     X     9    0.65084   0.605     3
X CT N3 X 9 0.0 0.65084 3    X   sCT   sN3     X     9    0.65084   0.605     3
X CT OH X 9 0.0 0.69733 3    X   sCT   sOH     X     9    0.69733   0.648     3
X CT OS X 9 0.0 1.60387 3    X   sCT   sOS     X     9    1.60387   1.491     3
X CT SH X 9 0.0 1.04600 3    X   sCT   sSH     X     9    1.04600   0.972     3
X CT S X 9 0.0 1.39467 3    X   sCT    sS     X     9    1.39467   1.297     3
X CV NB X 9 180.0 10.04160 2    X   sCV   sNB     X     9    10.04160  9.335     2
X CW NA X 9 180.0 6.27600 2    X   sCW   sNA     X     9    6.27600   5.834     2
X OH P X 9 0.0 1.04600 3    X   sOH    sP     X     9    1.04600   0.972     3
X OS P X 9 0.0 1.04600 3    X   sOS    sP     X     9    1.04600   0.972     3
X C1 N X 9 0.0 0.00000 0    X   sC1    sN     X     9    0.00000   0.000     0
X C C1 X 9 0.0 0.00000 0    X    sC   sC1     X     9    0.00000   0.000     0
X C C9 X 9 0.0 0.00000 0    X    sC   sC9     X     9    0.00000   0.000     0
X C CT X 9 0.0 0.00000 0    X    sC   sCT     X     9    0.00000   0.000     0
X CA CT X 9 0.0 0.00000 0    X   sCA   sCT     X     9    0.00000   0.000     0
X CC CT X 9 0.0 0.00000 0    X   sCC   sCT     X     9    0.00000   0.000     0
X CM CT X 9 0.0 0.00000 0    X   sCM   sCT     X     9    0.00000   0.000     0
X CT N X 9 0.0 0.00000 0    X   sCT    sN     X     9    0.00000   0.000     0
X CT N* X 9 0.0 0.00000 0    X   sCT   sN*     X     9    0.00000   0.000     0
X CT N2 X 9 0.0 0.00000 0    X   sCT   sN2     X     9    0.00000   0.000     0
X C* CT X 9 0.0 0.00000 0    X   sC*   sCT     X     9    0.00000   0.000     0
X C7 N X 9 0.0 0.00000 0    X   sC7    sN     X     9    0.00000   0.000     0
X C C7 X 9 0.0 0.00000 0    X    sC   sC7     X     9    0.00000   0.000     0
X C5 CT X 9 0.0 0.00000 0    X   sC5   sCT     X     9    0.00000   0.000     0
X C6 CT X 9 0.0 0.00000 0    X   sC6   sCT     X     9    0.00000   0.000     0
C C1 N O 4 180.0 4.60240 2   sC   sC1    sN    sO     4    4.60240   3.977     2
C C1 N OB 4 180.0 4.60240 2   sC   sC1    sN   sOB     4    4.60240   3.977     2
C C1 N H 4 180.0 4.60240 2   sC   sC1    sN    sH     4    4.60240   3.977     2
C C1 N HB 4 180.0 4.60240 2   sC   sC1    sN   sHB     4    4.60240   3.977     2
C9 O C OH 4 180.0 43.93200 2  sC9    sO    sC   sOH     4    43.93200  37.966    2
CB CK N* CT 4 180.0 4.18400 2  sCB   sCK   sN*   sCT     4    4.18400   3.616     2
C CM N* CT 4 180.0 4.18400 2   sC   sCM   sN*   sCT     4    4.18400   3.616     2
CT O C OH 4 180.0 43.93200 2  sCT    sO    sC   sOH     4    43.93200  37.966    2
CT CV CC NA 4 180.0 4.60240 2  sCT   sCV   sCC   sNA     4    4.60240   3.977     2
CT CW CC NB 4 180.0 4.60240 2  sCT   sCW   sCC   sNB     4    4.60240   3.977     2
CT CC CW NB 4 180.0 4.60240 2  sCT   sCC   sCW   sNB     4    4.60240   3.977     2
CT CW CC NA 4 180.0 4.60240 2  sCT   sCW   sCC   sNA     4    4.60240   3.977     2
CB CT C* CW 4 180.0 4.60240 2  sCB   sCT   sC*   sCW     4    4.60240   3.977     2
CA CA CA CT 4 180.0 4.60240 2  sCA   sCA   sCA   sCT     4    4.60240   3.977     2
C CM CM CT 4 180.0 4.60240 2   sC   sCM   sCM   sCT     4    4.60240   3.977     2
CM N2 CA NC 4 180.0 4.60240 2  sCM   sN2   sCA   sNC     4    4.60240   3.977     2
CB N2 CA NC 4 180.0 4.60240 2  sCB   sN2   sCA   sNC     4    4.60240   3.977     2
N2 NA CA NC 4 180.0 4.60240 2  sN2   sNA   sCA   sNC     4    4.60240   3.977     2
CA CA C OH 4 180.0 4.60240 2  sCA   sCA    sC   sOH     4    4.60240   3.977     2
CA CA CA OH 4 180.0 4.60240 2  sCA   sCA   sCA   sOH     4    4.60240   3.977     2
H5 O C OH 4 180.0 4.60240 2  sH5    sO    sC   sOH     4    4.60240   3.977     2
H5 O C OS 4 180.0 4.60240 2  sH5    sO    sC   sOS     4    4.60240   3.977     2
CM CT CM HA 4 180.0 4.60240 2  sCM   sCT   sCM   sHA     4    4.60240   3.977     2
Br CA CA CA 4 180.0 4.60240 2  sBr   sCA   sCA   sCA     4    4.60240   3.977     2
CM H4 C O 4 180.0 4.60240 2  sCM   sH4    sC    sO     4    4.60240   3.977     2
C CT N H 4 180.0 4.60240 2   sC   sCT    sN    sH     4    4.60240   3.977     2
C CT N HB 4 180.0 4.60240 2   sC   sCT    sN   sHB     4    4.60240   3.977     2
C CT N O 4 180.0 4.60240 2   sC   sCT    sN    sO     4    4.60240   3.977     2
C C7 N O 4 180.0 4.60240 2   sC   sC7    sN    sO     4    4.60240   3.977     2
C CT N OB 4 180.0 4.60240 2   sC   sCT    sN   sOB     4    4.60240   3.977     2
C C7 N OB 4 180.0 4.60240 2   sC   sC7    sN   sOB     4    4.60240   3.977     2
C C7 N H 4 180.0 4.60240 2   sC   sC7    sN    sH     4    4.60240   3.977     2
C C7 N HB 4 180.0 4.60240 2   sC   sC7    sN   sHB     4    4.60240   3.977     2
C5 CT N O 4 180.0 4.60240 2  sC5   sCT    sN    sO     4    4.60240   3.977     2
C5 CT N OB 4 180.0 4.60240 2  sC5   sCT    sN   sOB     4    4.60240   3.977     2
C5 CT N H 4 180.0 4.60240 2  sC5   sCT    sN    sH     4    4.60240   3.977     2
C5 CT N HB 4 180.0 4.60240 2  sC5   sCT    sN   sHB     4    4.60240   3.977     2
X CT N C1 4 180.0 4.18400 2    X   sCT    sN   sC1     4    4.18400   3.616     2
X CT N C7 4 180.0 4.18400 2    X   sCT    sN   sC7     4    4.18400   3.616     2
X O2 C6 O2 4 180.0 43.93200 2    X   sO2   sC6   sO2     4    43.93200  37.966    2
X O2 C O2 4 180.0 43.93200 2    X   sO2    sC   sO2     4    43.93200  37.966    2
X N2 CA N2 4 180.0 43.93200 2    X   sN2   sCA   sN2     4    43.93200  37.966    2
X CT N CT 4 180.0 4.18400 2    X   sCT    sN   sCT     4    4.18400   3.616     2
X X C O 4 180.0 43.93200 2    X     X    sC    sO     4    43.93200  37.966    2
X X C OB 4 180.0 43.93200 2    X     X    sC   sOB     4    43.93200  37.966    2
X X N H 4 180.0 4.18400 2    X     X    sN    sH     4    4.18400   3.616     2
X X N2 H 4 180.0 4.18400 2    X     X   sN2    sH     4    4.18400   3.616     2
X X NA H 4 180.0 4.18400 2    X     X   sNA    sH     4    4.18400   3.616     2
X X CA HA 4 180.0 4.60240 2    X     X   sCA   sHA     4    4.60240   3.977     2
X X CW H4 4 180.0 4.60240 2    X     X   sCW   sH4     4    4.60240   3.977     2
X X CR H5 4 180.0 4.60240 2    X     X   sCR   sH5     4    4.60240   3.977     2
X X CV H4 4 180.0 4.60240 2    X     X   sCV   sH4     4    4.60240   3.977     2
X X CQ H5 4 180.0 4.60240 2    X     X   sCQ   sH5     4    4.60240   3.977     2
X X CK H5 4 180.0 4.60240 2    X     X   sCK   sH5     4    4.60240   3.977     2
X X CM H4 4 180.0 4.60240 2    X     X   sCM   sH4     4    4.60240   3.977     2
X X CM HA 4 180.0 4.60240 2    X     X   sCM   sHA     4    4.60240   3.977     2
X X CA H4 4 180.0 4.60240 2    X     X   sCA   sH4     4    4.60240   3.977     2
X X CA H5 4 180.0 4.60240 2    X     X   sCA   sH5     4    4.60240   3.977     2
X X C5 O 4 180.0 43.93200 2    X     X   sC5    sO     4    43.93200  37.966    2
C8 CT C N 9 0.0 0.83680 1  sC8   sCT    sC    sN     9    0.83680   0.723     1
C8 CT C N 9 0.0 0.83680 2  sC8   sCT    sC    sN     9    0.83680   0.723     2
C8 CT C N 9 0.0 1.67360 3  sC8   sCT    sC    sN     9    1.67360   1.446     3
C8 CT N C 9 0.0 8.36800 1  sC8   sCT    sN    sC     9    8.36800   7.232     1
C8 CT N C 9 0.0 8.36800 2  sC8   sCT    sN    sC     9    8.36800   7.232     2
C8 CT N C 9 0.0 1.67360 3  sC8   sCT    sN    sC     9    1.67360   1.446     3
C CT C8 O3 9 180.0 4.18400 1   sC   sCT   sC8   sO3     9    4.18400   3.616     1
C CT C8 OH 9 180.0 3.76560 1   sC   sCT   sC8   sOH     9    3.76560   3.254     1
C CT CT C4 9 0.0 2.39074 1   sC   sCT   sCT   sC4     9    2.39074   2.066     1
C CT CT C4 9 180.0 1.49913 2   sC   sCT   sCT   sC4     9    1.49913   1.296     2
C CT CT C4 9 0.0 0.56400 3   sC   sCT   sCT   sC4     9    0.56400   0.487     3
C CT CT C5 9 0.0 0.71421 1   sC   sCT   sCT   sC5     9    0.71421   0.617     1
C CT CT C5 9 180.0 2.49241 2   sC   sCT   sCT   sC5     9    2.49241   2.154     2
C CT CT C5 9 0.0 0.49580 3   sC   sCT   sCT   sC5     9    0.49580   0.428     3
C CT CT C5 9 180.0 1.74556 4   sC   sCT   sCT   sC5     9    1.74556   1.509     4
C CT CT C5 9 0.0 0.43597 5   sC   sCT   sCT   sC5     9    0.43597   0.377     5
C CT CT C5 9 180.0 0.42142 6   sC   sCT   sCT   sC5     9    0.42142   0.364     6
C CT CT C* 9 0.0 1.21336 1   sC   sCT   sCT   sC*     9    1.21336   1.049     1
C CT CT C9 9 0.0 1.25520 1   sC   sCT   sCT   sC9     9    1.25520   1.085     1
C CT CT CA 9 0.0 2.17568 1   sC   sCT   sCT   sCA     9    2.17568   1.880     1
C CT CT CC 9 0.0 2.92880 1   sC   sCT   sCT   sCC     9    2.92880   2.531     1
C CT CT SH 9 180.0 0.66944 1   sC   sCT   sCT   sSH     9    0.66944   0.579     1
Cl CT CT Cl 9 180.0 1.88280 1  sCl   sCT   sCT   sCl     9    1.88280   1.627     1
CM CM C O 9 180.0 9.10020 2  sCM   sCM    sC    sO     9    9.10020   7.864     2
CM CM C O 9 0.0 1.25520 3  sCM   sCM    sC    sO     9    1.25520   1.085     3
C N C1 C 9 0.0 0.35267 1   sC    sN   sC1    sC     9    0.35267   0.305     1
C N C1 C 9 0.0 1.59541 2   sC    sN   sC1    sC     9    1.59541   1.379     2
C N C1 C 9 180.0 0.08381 3   sC    sN   sC1    sC     9    0.08381   0.072     3
C N C1 C 9 0.0 0.32396 4   sC    sN   sC1    sC     9    0.32396   0.280     4
C N C7 C 9 0.0 1.12968 2   sC    sN   sC7    sC     9    1.12968   0.976     2
C N C7 C 9 0.0 1.75728 3   sC    sN   sC7    sC     9    1.75728   1.519     3
C N CT C 9 180.0 0.14226 1   sC    sN   sCT    sC     9    0.14226   0.123     1
C N CT C 9 0.0 1.40164 2   sC    sN   sCT    sC     9    1.40164   1.211     2
C N CT C 9 0.0 2.27610 3   sC    sN   sCT    sC     9    2.27610   1.967     3
C N CT C 9 0.0 0.33472 4   sC    sN   sCT    sC     9    0.33472   0.289     4
CT C7 C N 9 0.0 0.83680 1  sCT   sC7    sC    sN     9    0.83680   0.723     1
CT C7 C N 9 0.0 0.83680 2  sCT   sC7    sC    sN     9    0.83680   0.723     2
CT C7 C N 9 0.0 1.67360 3  sCT   sC7    sC    sN     9    1.67360   1.446     3
CT C7 N C 9 0.0 8.36800 1  sCT   sC7    sN    sC     9    8.36800   7.232     1
CT C7 N C 9 0.0 8.36800 2  sCT   sC7    sN    sC     9    8.36800   7.232     2
CT C7 N C 9 0.0 1.67360 3  sCT   sC7    sN    sC     9    1.67360   1.446     3
CT C9 C O2 9 180.0 2.51040 2  sCT   sC9    sC   sO2     9    2.51040   2.169     2
CT C9 C O 9 180.0 2.51040 2  sCT   sC9    sC    sO     9    2.51040   2.169     2
CT C9 C OB 9 180.0 2.51040 2  sCT   sC9    sC   sOB     9    2.51040   2.169     2
CT CM CM CT 9 180.0 27.82360 2  sCT   sCM   sCM   sCT     9    27.82360  24.045    2
CT CM CM CT 9 180.0 7.94960 1  sCT   sCM   sCM   sCT     9    7.94960   6.870     1
CT CT C4 CT 9 0.0 0.62760 3  sCT   sCT   sC4   sCT     9    0.62760   0.542     3
CT CT C5 O 9 180.0 4.18400 1  sCT   sCT   sC5    sO     9    4.18400   3.616     1
CT CT C6 O2 9 180.0 0.77822 4  sCT   sCT   sC6   sO2     9    0.77822   0.673     4
CT CT C6 O2 9 180.0 1.48114 6  sCT   sCT   sC6   sO2     9    1.48114   1.280     6
CT CT C6 O2 9 180.0 3.65263 2  sCT   sCT   sC6   sO2     9    3.65263   3.157     2
CT CT C* CW 9 0.0 5.02080 1  sCT   sCT   sC*   sCW     9    5.02080   4.339     1
CT CT C N 9 0.0 0.83680 1  sCT   sCT    sC    sN     9    0.83680   0.723     1
CT CT C N 9 0.0 0.83680 2  sCT   sCT    sC    sN     9    0.83680   0.723     2
CT CT C N 9 0.0 1.67360 3  sCT   sCT    sC    sN     9    1.67360   1.446     3
CT CT CT C3 9 0.0 0.62760 3  sCT   sCT   sCT   sC3     9    0.62760   0.542     3
CT CT CT C7 9 0.0 0.75312 3  sCT   sCT   sCT   sC7     9    0.75312   0.651     3
CT CT CT C7 9 180.0 0.83680 1  sCT   sCT   sCT   sC7     9    0.83680   0.723     1
CT CT CT C7 9 180.0 1.04600 2  sCT   sCT   sCT   sC7     9    1.04600   0.904     2
CT CT CT CT 9 0.0 0.62760 3  sCT   sCT   sCT   sCT     9    0.62760   0.542     3
CT CT N C 9 0.0 1.67360 3  sCT   sCT    sN    sC     9    1.67360   1.446     3
CT CT N C 9 0.0 8.36800 1  sCT   sCT    sN    sC     9    8.36800   7.232     1
CT CT N C 9 0.0 8.36800 2  sCT   sCT    sN    sC     9    8.36800   7.232     2
CT CT OS C 9 0.0 1.60247 3  sCT   sCT   sOS    sC     9    1.60247   1.385     3
CT CT OS C 9 180.0 3.34720 1  sCT   sCT   sOS    sC     9    3.34720   2.893     1
CT CT OS CT 9 0.0 1.60247 3  sCT   sCT   sOS   sCT     9    1.60247   1.385     3
CT CT OS CT 9 180.0 0.41840 2  sCT   sCT   sOS   sCT     9    0.41840   0.362     2
CT CT SH HS 9 0.0 0.83680 3  sCT   sCT   sSH   sHS     9    0.83680   0.723     3
CT CT SH HS 9 0.0 2.09200 2  sCT   sCT   sSH   sHS     9    2.09200   1.808     2
CT OS CT N* 9 0.0 1.60247 3  sCT   sOS   sCT   sN*     9    1.60247   1.385     3
CT OS CT N* 9 0.0 2.71960 2  sCT   sOS   sCT   sN*     9    2.71960   2.350     2
CT OS CT OS 9 0.0 0.41840 3  sCT   sOS   sCT   sOS     9    0.41840   0.362     3
CT OS CT OS 9 180.0 3.55640 2  sCT   sOS   sCT   sOS     9    3.55640   3.073     2
CT OS CT OS 9 180.0 5.64840 1  sCT   sOS   sCT   sOS     9    5.64840   4.881     1
CT S S CT 9 0.0 14.64400 2  sCT    sS    sS   sCT     9    14.64400  12.655    2
CT S S CT 9 0.0 2.51040 3  sCT    sS    sS   sCT     9    2.51040   2.169     3
F CT CT F 9 180.0 5.02080 1   sF   sCT   sCT    sF     9    5.02080   4.339     1
H1 C1 C O 9 0.0 3.34720 1  sH1   sC1    sC    sO     9    3.34720   2.893     1
H1 C1 C O 9 180.0 0.33472 3  sH1   sC1    sC    sO     9    0.33472   0.289     3
H1 C7 C O 9 0.0 3.34720 1  sH1   sC7    sC    sO     9    3.34720   2.893     1
H1 C7 C O 9 180.0 0.33472 3  sH1   sC7    sC    sO     9    0.33472   0.289     3
H1 CT C O 9 0.0 3.34720 1  sH1   sCT    sC    sO     9    3.34720   2.893     1
H1 CT C O 9 180.0 0.33472 3  sH1   sCT    sC    sO     9    0.33472   0.289     3
H1 C1 C OB 9 0.0 3.34720 1  sH1   sC1    sC   sOB     9    3.34720   2.893     1
H1 C1 C OB 9 180.0 0.33472 3  sH1   sC1    sC   sOB     9    0.33472   0.289     3
H1 C7 C OB 9 0.0 3.34720 1  sH1   sC7    sC   sOB     9    3.34720   2.893     1
H1 C7 C OB 9 180.0 0.33472 3  sH1   sC7    sC   sOB     9    0.33472   0.289     3
H1 CT C OB 9 0.0 3.34720 1  sH1   sCT    sC   sOB     9    3.34720   2.893     1
H1 CT C OB 9 180.0 0.33472 3  sH1   sCT    sC   sOB     9    0.33472   0.289     3
H1 CT CT Br 9 0.0 2.30120 1  sH1   sCT   sCT   sBr     9    2.30120   1.989     1
H1 CT CT Cl 9 0.0 1.04600 1  sH1   sCT   sCT   sCl     9    1.04600   0.904     1
H1 CT CT F 9 0.0 0.79496 1  sH1   sCT   sCT    sF     9    0.79496   0.687     1
H1 CT CT OH 9 0.0 1.04600 1  sH1   sCT   sCT   sOH     9    1.04600   0.904     1
H1 CT CT OS 9 0.0 1.04600 1  sH1   sCT   sCT   sOS     9    1.04600   0.904     1
HC C3 CT CT 9 0.0 0.66944 3  sHC   sC3   sCT   sCT     9    0.66944   0.579     3
HC C4 CT CT 9 0.0 0.66944 3  sHC   sC4   sCT   sCT     9    0.66944   0.579     3
HC C4 CT HC 9 0.0 0.62760 3  sHC   sC4   sCT   sHC     9    0.62760   0.542     3
HC CT C3 HC 9 0.0 0.62760 3  sHC   sCT   sC3   sHC     9    0.62760   0.542     3
HC CT C4 CT 9 0.0 0.66944 3  sHC   sCT   sC4   sCT     9    0.66944   0.579     3
HC CT C5 O 9 0.0 3.34720 1  sHC   sCT   sC5    sO     9    3.34720   2.893     1
HC CT C5 O 9 180.0 0.33472 3  sHC   sCT   sC5    sO     9    0.33472   0.289     3
HC CT CM CM 9 0.0 4.81160 1  sHC   sCT   sCM   sCM     9    4.81160   4.158     1
HC CT CM CM 9 180.0 1.58992 3  sHC   sCT   sCM   sCM     9    1.58992   1.374     3
HC CT C O 9 0.0 3.34720 1  sHC   sCT    sC    sO     9    3.34720   2.893     1
HC CT C O 9 180.0 0.33472 3  sHC   sCT    sC    sO     9    0.33472   0.289     3
HC CT C OB 9 0.0 3.34720 1  sHC   sCT    sC   sOB     9    3.34720   2.893     1
HC CT C OB 9 180.0 0.33472 3  sHC   sCT    sC   sOB     9    0.33472   0.289     3
HC CT CT Br 9 0.0 2.30120 1  sHC   sCT   sCT   sBr     9    2.30120   1.989     1
HC CT CT C3 9 0.0 0.66944 3  sHC   sCT   sCT   sC3     9    0.66944   0.579     3
HC CT CT C4 9 0.0 0.66944 3  sHC   sCT   sCT   sC4     9    0.66944   0.579     3
HC CT CT C7 9 0.0 0.66944 3  sHC   sCT   sCT   sC7     9    0.66944   0.579     3
HC CT CT Cl 9 0.0 1.04600 1  sHC   sCT   sCT   sCl     9    1.04600   0.904     1
HC CT CT CT 9 0.0 0.66944 3  sHC   sCT   sCT   sCT     9    0.66944   0.579     3
HC CT CT F 9 0.0 0.79496 1  sHC   sCT   sCT    sF     9    0.79496   0.687     1
HC CT CT HC 9 0.0 0.62760 3  sHC   sCT   sCT   sHC     9    0.62760   0.542     3
HC CT CT OH 9 0.0 1.04600 1  sHC   sCT   sCT   sOH     9    1.04600   0.904     1
HC CT CT OS 9 0.0 1.04600 1  sHC   sCT   sCT   sOS     9    1.04600   0.904     1
H N C5 O 9 0.0 8.36800 1   sH    sN   sC5    sO     9    8.36800   7.232     1
H N C5 O 9 180.0 10.46000 2   sH    sN   sC5    sO     9    10.46000  9.040     2
H N C O 9 0.0 8.36800 1   sH    sN    sC    sO     9    8.36800   7.232     1
H N C O 9 180.0 10.46000 2   sH    sN    sC    sO     9    10.46000  9.040     2
HB N C OB 9 0.0 8.36800 1  sHB    sN    sC   sOB     9    8.36800   7.232     1
HB N C OB 9 180.0 10.46000 2  sHB    sN    sC   sOB     9    10.46000  9.040     2
HO O3 C8 CT 9 0.0 0.35982 1  sHO   sO3   sC8   sCT     9    0.35982   0.311     1
HO O3 C8 CT 9 0.0 0.41840 3  sHO   sO3   sC8   sCT     9    0.41840   0.362     3
HO O3 C8 CT 9 180.0 0.68199 2  sHO   sO3   sC8   sCT     9    0.68199   0.589     2
HO O3 C8 H1 9 0.0 0.41840 3  sHO   sO3   sC8   sH1     9    0.41840   0.362     3
HO OH C8 CT 9 0.0 0.25104 2  sHO   sOH   sC8   sCT     9    0.25104   0.217     2
HO OH C8 CT 9 0.0 0.83680 3  sHO   sOH   sC8   sCT     9    0.83680   0.723     3
HO OH C8 CT 9 0.0 3.13800 1  sHO   sOH   sC8   sCT     9    3.13800   2.712     1
HO OH C O 9 0.0 7.94960 1  sHO   sOH    sC    sO     9    7.94960   6.870     1
HO OH C O 9 180.0 9.62320 2  sHO   sOH    sC    sO     9    9.62320   8.316     2
HO OH CT CT 9 0.0 0.66944 3  sHO   sOH   sCT   sCT     9    0.66944   0.579     3
HO OH CT CT 9 0.0 1.04600 1  sHO   sOH   sCT   sCT     9    1.04600   0.904     1
N3 CT CT C3 9 0.0 0.81630 1  sN3   sCT   sCT   sC3     9    0.81630   0.705     1
N3 CT CT C3 9 180.0 3.53925 2  sN3   sCT   sCT   sC3     9    3.53925   3.059     2
N3 CT CT C6 9 180.0 11.02568 1  sN3   sCT   sCT   sC6     9    11.02568  9.528     1
N3 CT CT C6 9 180.0 4.98022 2  sN3   sCT   sCT   sC6     9    4.98022   4.304     2
N3 CT CT C6 9 180.0 0.02845 3  sN3   sCT   sCT   sC6     9    0.02845   0.025     3
N3 CT CT C6 9 0.0 1.76858 4  sN3   sCT   sCT   sC6     9    1.76858   1.528     4
N3 CT CT C6 9 0.0 0.96943 5  sN3   sCT   sCT   sC6     9    0.96943   0.838     5
N3 CT CT C6 9 180.0 0.89009 6  sN3   sCT   sCT   sC6     9    0.89009   0.769     6
N C1 C N 9 180.0 2.69445 1   sN   sC1    sC    sN     9    2.69445   2.329     1
N C1 C N 9 180.0 6.68666 2   sN   sC1    sC    sN     9    6.68666   5.779     2
N C1 C N 9 180.0 1.67111 3   sN   sC1    sC    sN     9    1.67111   1.444     3
N C1 C N 9 0.0 0.31419 4   sN   sC1    sC    sN     9    0.31419   0.272     4
N C5 CT CT 9 180.0 4.37772 1   sN   sC5   sCT   sCT     9    4.37772   3.783     1
N C5 CT CT 9 180.0 0.75730 2   sN   sC5   sCT   sCT     9    0.75730   0.654     2
N C5 CT CT 9 180.0 0.14811 3   sN   sC5   sCT   sCT     9    0.14811   0.128     3
N C5 CT CT 9 0.0 0.41966 4   sN   sC5   sCT   sCT     9    0.41966   0.363     4
N C5 CT CT 9 0.0 0.54308 5   sN   sC5   sCT   sCT     9    0.54308   0.469     5
N C5 CT CT 9 180.0 0.44373 6   sN   sC5   sCT   sCT     9    0.44373   0.383     6
N C7 C N 9 180.0 1.88280 1   sN   sC7    sC    sN     9    1.88280   1.627     1
N C7 C N 9 180.0 6.61072 2   sN   sC7    sC    sN     9    6.61072   5.713     2
N C7 C N 9 180.0 2.30120 3   sN   sC7    sC    sN     9    2.30120   1.989     3
N CT C8 CT 9 0.0 0.25104 1   sN   sCT   sC8   sCT     9    0.25104   0.217     1
N CT C8 CT 9 180.0 2.09200 2   sN   sCT   sC8   sCT     9    2.09200   1.808     2
N CT C8 CT 9 0.0 0.62760 3   sN   sCT   sC8   sCT     9    0.62760   0.542     3
N CT C8 CT 9 180.0 0.27196 4   sN   sCT   sC8   sCT     9    0.27196   0.235     4
N CT C8 O3 9 180.0 0.33472 1   sN   sCT   sC8   sO3     9    0.33472   0.289     1
N CT C8 OH 9 180.0 1.04600 1   sN   sCT   sC8   sOH     9    1.04600   0.904     1
N CT C N 9 360.0 0.82425 1   sN   sCT    sC    sN     9    0.82425   0.712     1
N CT C N 9 180.0 6.04588 2   sN   sCT    sC    sN     9    6.04588   5.225     2
N CT C N 9 180.0 2.00414 3   sN   sCT    sC    sN     9    2.00414   1.732     3
N CT C N 9 360.0 0.07991 4   sN   sCT    sC    sN     9    0.07991   0.069     4
N CT C N 9 360.0 0.01674 5   sN   sCT    sC    sN     9    0.01674   0.014     5
N CT CT C3 9 0.0 0.81630 1   sN   sCT   sCT   sC3     9    0.81630   0.705     1
N CT CT C3 9 180.0 3.53925 2   sN   sCT   sCT   sC3     9    3.53925   3.059     2
N CT CT C5 9 180.0 2.63592 1   sN   sCT   sCT   sC5     9    2.63592   2.278     1
N CT CT C6 9 180.0 12.05410 1   sN   sCT   sCT   sC6     9    12.05410  10.417    1
N CT CT C6 9 180.0 5.06682 2   sN   sCT   sCT   sC6     9    5.06682   4.379     2
N CT CT C6 9 0.0 0.25941 3   sN   sCT   sCT   sC6     9    0.25941   0.224     3
N CT CT C6 9 0.0 1.02508 4   sN   sCT   sCT   sC6     9    1.02508   0.886     4
N CT CT C6 9 0.0 0.54810 5   sN   sCT   sCT   sC6     9    0.54810   0.474     5
N CT CT C6 9 180.0 0.59413 6   sN   sCT   sCT   sC6     9    0.59413   0.513     6
N CT CT C9 9 0.0 0.41840 1   sN   sCT   sCT   sC9     9    0.41840   0.362     1
N CT CT CC 9 180.0 1.67360 1   sN   sCT   sCT   sCC     9    1.67360   1.446     1
N CT CT SH 9 180.0 2.30120 1   sN   sCT   sCT   sSH     9    2.30120   1.989     1
N CT CT SH 9 180.0 2.63592 2   sN   sCT   sCT   sSH     9    2.63592   2.278     2
N CT CT SH 9 180.0 0.25104 3   sN   sCT   sCT   sSH     9    0.25104   0.217     3
N CT CT SH 9 180.0 0.12552 4   sN   sCT   sCT   sSH     9    0.12552   0.108     4
O C OS CT 9 180.0 5.85760 1   sO    sC   sOS   sCT     9    5.85760   5.062     1
O C OS CT 9 180.0 11.29680 2   sO    sC   sOS   sCT     9    11.29680  9.763     2
OH CT CT OH 9 0.0 0.60250 3  sOH   sCT   sCT   sOH     9    0.60250   0.521     3
OH CT CT OH 9 0.0 4.91620 2  sOH   sCT   sCT   sOH     9    4.91620   4.249     2
OH P OS CT 9 0.0 1.04600 3  sOH    sP   sOS   sCT     9    1.04600   0.904     3
OH P OS CT 9 0.0 5.02080 2  sOH    sP   sOS   sCT     9    5.02080   4.339     2
OS CT CT OH 9 0.0 0.60250 3  sOS   sCT   sCT   sOH     9    0.60250   0.521     3
OS CT CT OH 9 0.0 4.91620 2  sOS   sCT   sCT   sOH     9    4.91620   4.249     2
OS CT CT OS 9 0.0 4.91620 2  sOS   sCT   sCT   sOS     9    4.91620   4.249     2
OS CT CT OS 9 0.0 0.60250 3  sOS   sCT   sCT   sOS     9    0.60250   0.521     3
OS CT N* CK 9 0.0 10.46000 1  sOS   sCT   sN*   sCK     9    10.46000  9.040     1
OS CT N* CM 9 0.0 10.46000 1  sOS   sCT   sN*   sCM     9    10.46000  9.040     1
OS P OS CT 9 0.0 5.02080 2  sOS    sP   sOS   sCT     9    5.02080   4.339     2
OS P OS CT 9 0.0 1.04600 3  sOS    sP   sOS   sCT     9    1.04600   0.904     3
N CT CT CA 9 0.0 0.00000 0   sN   sCT   sCT   sCA     9    0.00000   0.000     0
N CT CT C* 9 0.0 0.00000 0   sN   sCT   sCT   sC*     9    0.00000   0.000     0
CT CT C9 S 9 0.0 0.00000 0  sCT   sCT   sC9    sS     9    0.00000   0.000     0
CT CT C9 CT 9 0.0 0.00000 0  sCT   sCT   sC9   sCT     9    0.00000   0.000     0
X C1 N3 X 9 0.0 0.65084 3    X   sC1   sN3     X     9    0.65084   0.562     3
X C5 N X 9 180.0 10.46000 2    X   sC5    sN     X     9    10.46000  9.040     2
X C7 CT X 9 0.0 0.65084 3    X   sC7   sCT     X     9    0.65084   0.562     3
X C7 N3 X 9 0.0 0.65084 3    X   sC7   sN3     X     9    0.65084   0.562     3
X C8 O3 X 9 0.0 0.69873 3    X   sC8   sO3     X     9    0.69873   0.604     3
X C8 OH X 9 0.0 0.69873 3    X   sC8   sOH     X     9    0.69873   0.604     3
X C9 S X 9 0.0 1.39327 3    X   sC9    sS     X     9    1.39327   1.204     3
X CA CA X 9 180.0 15.16700 2    X   sCA   sCA     X     9    15.16700  13.107    2
X CA CB X 9 180.0 14.64400 2    X   sCA   sCB     X     9    14.64400  12.655    2
X CA CM X 9 180.0 10.66920 2    X   sCA   sCM     X     9    10.66920  9.220     2
X CA CN X 9 180.0 15.16700 2    X   sCA   sCN     X     9    15.16700  13.107    2
X CA N2 X 9 180.0 10.04160 2    X   sCA   sN2     X     9    10.04160  8.678     2
X CA NA X 9 180.0 6.27600 2    X   sCA   sNA     X     9    6.27600   5.424     2
X CA NC X 9 180.0 20.08320 2    X   sCA   sNC     X     9    20.08320  17.356    2
X CA OH X 9 180.0 3.76560 2    X   sCA   sOH     X     9    3.76560   3.254     2
X CB CB X 9 180.0 22.80280 2    X   sCB   sCB     X     9    22.80280  19.706    2
X CB CN X 9 180.0 12.55200 2    X   sCB   sCN     X     9    12.55200  10.847    2
X CB NB X 9 180.0 10.66920 2    X   sCB   sNB     X     9    10.66920  9.220     2
X CB NC X 9 180.0 17.36360 2    X   sCB   sNC     X     9    17.36360  15.006    2
X CB N* X 9 180.0 6.90360 2    X   sCB   sN*     X     9    6.90360   5.966     2
X C CA X 9 180.0 15.16700 2    X    sC   sCA     X     9    15.16700  13.107    2
X C CB X 9 180.0 12.55200 2    X    sC   sCB     X     9    12.55200  10.847    2
X C* CB X 9 180.0 7.00820 2    X   sC*   sCB     X     9    7.00820   6.056     2
X CC CV X 9 180.0 21.54760 2    X   sCC   sCV     X     9    21.54760  18.621    2
X CC CW X 9 180.0 22.48900 2    X   sCC   sCW     X     9    22.48900  19.435    2
X C CM X 9 180.0 9.10020 2    X    sC   sCM     X     9    9.10020   7.864     2
X CC NA X 9 180.0 5.85760 2    X   sCC   sNA     X     9    5.85760   5.062     2
X CC NB X 9 180.0 10.04160 2    X   sCC   sNB     X     9    10.04160  8.678     2
X C* CW X 9 180.0 27.30060 2    X   sC*   sCW     X     9    27.30060  23.593    2
X C C X 9 180.0 15.16700 2    X    sC    sC     X     9    15.16700  13.107    2
X CK NB X 9 180.0 41.84000 2    X   sCK   sNB     X     9    41.84000  36.158    2
X CK N* X 9 180.0 7.11280 2    X   sCK   sN*     X     9    7.11280   6.147     2
X CM CM X 9 180.0 27.82360 2    X   sCM   sCM     X     9    27.82360  24.045    2
X CM N* X 9 180.0 7.74040 2    X   sCM   sN*     X     9    7.74040   6.689     2
X CM OS X 9 180.0 4.39320 2    X   sCM   sOS     X     9    4.39320   3.797     2
X C NA X 9 180.0 5.64840 2    X    sC   sNA     X     9    5.64840   4.881     2
X C NC X 9 180.0 16.73600 2    X    sC   sNC     X     9    16.73600  14.463    2
X CN NA X 9 180.0 6.38060 2    X   sCN   sNA     X     9    6.38060   5.514     2
X C N X 9 180.0 10.46000 2    X    sC    sN     X     9    10.46000  9.040     2
X C N* X 9 180.0 6.06680 2    X    sC   sN*     X     9    6.06680   5.243     2
X C OH X 9 180.0 9.62320 2    X    sC   sOH     X     9    9.62320   8.316     2
X C OS X 9 180.0 11.29680 2    X    sC   sOS     X     9    11.29680  9.763     2
X C O X 9 180.0 11.71520 2    X    sC    sO     X     9    11.71520  10.124    2
X C OB X 9 180.0 11.71520 2    X    sC   sOB     X     9    11.71520  10.124    2
X CQ NC X 9 180.0 28.45120 2    X   sCQ   sNC     X     9    28.45120  24.588    2
X CR NA X 9 180.0 9.72780 2    X   sCR   sNA     X     9    9.72780   8.407     2
X CR NB X 9 180.0 20.92000 2    X   sCR   sNB     X     9    20.92000  18.079    2
X CT C8 X 9 0.0 0.64852 3    X   sCT   sC8     X     9    0.64852   0.560     3
X CT C9 X 9 0.0 0.64852 3    X   sCT   sC9     X     9    0.64852   0.560     3
X CT CT X 9 0.0 0.65084 3    X   sCT   sCT     X     9    0.65084   0.562     3
X CT N3 X 9 0.0 0.65084 3    X   sCT   sN3     X     9    0.65084   0.562     3
X CT OH X 9 0.0 0.69733 3    X   sCT   sOH     X     9    0.69733   0.603     3
X CT OS X 9 0.0 1.60387 3    X   sCT   sOS     X     9    1.60387   1.386     3
X CT SH X 9 0.0 1.04600 3    X   sCT   sSH     X     9    1.04600   0.904     3
X CT S X 9 0.0 1.39467 3    X   sCT    sS     X     9    1.39467   1.205     3
X CV NB X 9 180.0 10.04160 2    X   sCV   sNB     X     9    10.04160  8.678     2
X CW NA X 9 180.0 6.27600 2    X   sCW   sNA     X     9    6.27600   5.424     2
X OH P X 9 0.0 1.04600 3    X   sOH    sP     X     9    1.04600   0.904     3
X OS P X 9 0.0 1.04600 3    X   sOS    sP     X     9    1.04600   0.904     3
X C1 N X 9 0.0 0.00000 0    X   sC1    sN     X     9    0.00000   0.000     0
X C C1 X 9 0.0 0.00000 0    X    sC   sC1     X     9    0.00000   0.000     0
X C C9 X 9 0.0 0.00000 0    X    sC   sC9     X     9    0.00000   0.000     0
X C CT X 9 0.0 0.00000 0    X    sC   sCT     X     9    0.00000   0.000     0
X CA CT X 9 0.0 0.00000 0    X   sCA   sCT     X     9    0.00000   0.000     0
X CC CT X 9 0.0 0.00000 0    X   sCC   sCT     X     9    0.00000   0.000     0
X CM CT X 9 0.0 0.00000 0    X   sCM   sCT     X     9    0.00000   0.000     0
X CT N X 9 0.0 0.00000 0    X   sCT    sN     X     9    0.00000   0.000     0
X CT N* X 9 0.0 0.00000 0    X   sCT   sN*     X     9    0.00000   0.000     0
X CT N2 X 9 0.0 0.00000 0    X   sCT   sN2     X     9    0.00000   0.000     0
X C* CT X 9 0.0 0.00000 0    X   sC*   sCT     X     9    0.00000   0.000     0
X C7 N X 9 0.0 0.00000 0    X   sC7    sN     X     9    0.00000   0.000     0
X C C7 X 9 0.0 0.00000 0    X    sC   sC7     X     9    0.00000   0.000     0
X C5 CT X 9 0.0 0.00000 0    X   sC5   sCT     X     9    0.00000   0.000     0
X C6 CT X 9 0.0 0.00000 0    X   sC6   sCT     X     9    0.00000   0.000     0
C C1 N O 4 180.0 4.60240 2   sC   sC1    sN    sO     4    4.60240   3.697     2
C C1 N OB 4 180.0 4.60240 2   sC   sC1    sN   sOB     4    4.60240   3.697     2
C C1 N H 4 180.0 4.60240 2   sC   sC1    sN    sH     4    4.60240   3.697     2
C C1 N HB 4 180.0 4.60240 2   sC   sC1    sN   sHB     4    4.60240   3.697     2
C9 O C OH 4 180.0 43.93200 2  sC9    sO    sC   sOH     4    43.93200  35.294    2
CB CK N* CT 4 180.0 4.18400 2  sCB   sCK   sN*   sCT     4    4.18400   3.361     2
C CM N* CT 4 180.0 4.18400 2   sC   sCM   sN*   sCT     4    4.18400   3.361     2
CT O C OH 4 180.0 43.93200 2  sCT    sO    sC   sOH     4    43.93200  35.294    2
CT CV CC NA 4 180.0 4.60240 2  sCT   sCV   sCC   sNA     4    4.60240   3.697     2
CT CW CC NB 4 180.0 4.60240 2  sCT   sCW   sCC   sNB     4    4.60240   3.697     2
CT CC CW NB 4 180.0 4.60240 2  sCT   sCC   sCW   sNB     4    4.60240   3.697     2
CT CW CC NA 4 180.0 4.60240 2  sCT   sCW   sCC   sNA     4    4.60240   3.697     2
CB CT C* CW 4 180.0 4.60240 2  sCB   sCT   sC*   sCW     4    4.60240   3.697     2
CA CA CA CT 4 180.0 4.60240 2  sCA   sCA   sCA   sCT     4    4.60240   3.697     2
C CM CM CT 4 180.0 4.60240 2   sC   sCM   sCM   sCT     4    4.60240   3.697     2
CM N2 CA NC 4 180.0 4.60240 2  sCM   sN2   sCA   sNC     4    4.60240   3.697     2
CB N2 CA NC 4 180.0 4.60240 2  sCB   sN2   sCA   sNC     4    4.60240   3.697     2
N2 NA CA NC 4 180.0 4.60240 2  sN2   sNA   sCA   sNC     4    4.60240   3.697     2
CA CA C OH 4 180.0 4.60240 2  sCA   sCA    sC   sOH     4    4.60240   3.697     2
CA CA CA OH 4 180.0 4.60240 2  sCA   sCA   sCA   sOH     4    4.60240   3.697     2
H5 O C OH 4 180.0 4.60240 2  sH5    sO    sC   sOH     4    4.60240   3.697     2
H5 O C OS 4 180.0 4.60240 2  sH5    sO    sC   sOS     4    4.60240   3.697     2
CM CT CM HA 4 180.0 4.60240 2  sCM   sCT   sCM   sHA     4    4.60240   3.697     2
Br CA CA CA 4 180.0 4.60240 2  sBr   sCA   sCA   sCA     4    4.60240   3.697     2
CM H4 C O 4 180.0 4.60240 2  sCM   sH4    sC    sO     4    4.60240   3.697     2
C CT N H 4 180.0 4.60240 2   sC   sCT    sN    sH     4    4.60240   3.697     2
C CT N HB 4 180.0 4.60240 2   sC   sCT    sN   sHB     4    4.60240   3.697     2
C CT N O 4 180.0 4.60240 2   sC   sCT    sN    sO     4    4.60240   3.697     2
C C7 N O 4 180.0 4.60240 2   sC   sC7    sN    sO     4    4.60240   3.697     2
C CT N OB 4 180.0 4.60240 2   sC   sCT    sN   sOB     4    4.60240   3.697     2
C C7 N OB 4 180.0 4.60240 2   sC   sC7    sN   sOB     4    4.60240   3.697     2
C C7 N H 4 180.0 4.60240 2   sC   sC7    sN    sH     4    4.60240   3.697     2
C C7 N HB 4 180.0 4.60240 2   sC   sC7    sN   sHB     4    4.60240   3.697     2
C5 CT N O 4 180.0 4.60240 2  sC5   sCT    sN    sO     4    4.60240   3.697     2
C5 CT N OB 4 180.0 4.60240 2  sC5   sCT    sN   sOB     4    4.60240   3.697     2
C5 CT N H 4 180.0 4.60240 2  sC5   sCT    sN    sH     4    4.60240   3.697     2
C5 CT N HB 4 180.0 4.60240 2  sC5   sCT    sN   sHB     4    4.60240   3.697     2
X CT N C1 4 180.0 4.18400 2    X   sCT    sN   sC1     4    4.18400   3.361     2
X CT N C7 4 180.0 4.18400 2    X   sCT    sN   sC7     4    4.18400   3.361     2
X O2 C6 O2 4 180.0 43.93200 2    X   sO2   sC6   sO2     4    43.93200  35.294    2
X O2 C O2 4 180.0 43.93200 2    X   sO2    sC   sO2     4    43.93200  35.294    2
X N2 CA N2 4 180.0 43.93200 2    X   sN2   sCA   sN2     4    43.93200  35.294    2
X CT N CT 4 180.0 4.18400 2    X   sCT    sN   sCT     4    4.18400   3.361     2
X X C O 4 180.0 43.93200 2    X     X    sC    sO     4    43.93200  35.294    2
X X C OB 4 180.0 43.93200 2    X     X    sC   sOB     4    43.93200  35.294    2
X X N H 4 180.0 4.18400 2    X     X    sN    sH     4    4.18400   3.361     2
X X N2 H 4 180.0 4.18400 2    X     X   sN2    sH     4    4.18400   3.361     2
X X NA H 4 180.0 4.18400 2    X     X   sNA    sH     4    4.18400   3.361     2
X X CA HA 4 180.0 4.60240 2    X     X   sCA   sHA     4    4.60240   3.697     2
X X CW H4 4 180.0 4.60240 2    X     X   sCW   sH4     4    4.60240   3.697     2
X X CR H5 4 180.0 4.60240 2    X     X   sCR   sH5     4    4.60240   3.697     2
X X CV H4 4 180.0 4.60240 2    X     X   sCV   sH4     4    4.60240   3.697     2
X X CQ H5 4 180.0 4.60240 2    X     X   sCQ   sH5     4    4.60240   3.697     2
X X CK H5 4 180.0 4.60240 2    X     X   sCK   sH5     4    4.60240   3.697     2
X X CM H4 4 180.0 4.60240 2    X     X   sCM   sH4     4    4.60240   3.697     2
X X CM HA 4 180.0 4.60240 2    X     X   sCM   sHA     4    4.60240   3.697     2
X X CA H4 4 180.0 4.60240 2    X     X   sCA   sH4     4    4.60240   3.697     2
X X CA H5 4 180.0 4.60240 2    X     X   sCA   sH5     4    4.60240   3.697     2
X X C5 O 4 180.0 43.93200 2    X     X   sC5    sO     4    43.93200  35.294    2
C8 CT C N 9 0.0 0.83680 1  sC8   sCT    sC    sN     9    0.83680   0.672     1
C8 CT C N 9 0.0 0.83680 2  sC8   sCT    sC    sN     9    0.83680   0.672     2
C8 CT C N 9 0.0 1.67360 3  sC8   sCT    sC    sN     9    1.67360   1.345     3
C8 CT N C 9 0.0 8.36800 1  sC8   sCT    sN    sC     9    8.36800   6.723     1
C8 CT N C 9 0.0 8.36800 2  sC8   sCT    sN    sC     9    8.36800   6.723     2
C8 CT N C 9 0.0 1.67360 3  sC8   sCT    sN    sC     9    1.67360   1.345     3
C CT C8 O3 9 180.0 4.18400 1   sC   sCT   sC8   sO3     9    4.18400   3.361     1
C CT C8 OH 9 180.0 3.76560 1   sC   sCT   sC8   sOH     9    3.76560   3.025     1
C CT CT C4 9 0.0 2.39074 1   sC   sCT   sCT   sC4     9    2.39074   1.921     1
C CT CT C4 9 180.0 1.49913 2   sC   sCT   sCT   sC4     9    1.49913   1.204     2
C CT CT C4 9 0.0 0.56400 3   sC   sCT   sCT   sC4     9    0.56400   0.453     3
C CT CT C5 9 0.0 0.71421 1   sC   sCT   sCT   sC5     9    0.71421   0.574     1
C CT CT C5 9 180.0 2.49241 2   sC   sCT   sCT   sC5     9    2.49241   2.002     2
C CT CT C5 9 0.0 0.49580 3   sC   sCT   sCT   sC5     9    0.49580   0.398     3
C CT CT C5 9 180.0 1.74556 4   sC   sCT   sCT   sC5     9    1.74556   1.402     4
C CT CT C5 9 0.0 0.43597 5   sC   sCT   sCT   sC5     9    0.43597   0.350     5
C CT CT C5 9 180.0 0.42142 6   sC   sCT   sCT   sC5     9    0.42142   0.339     6
C CT CT C* 9 0.0 1.21336 1   sC   sCT   sCT   sC*     9    1.21336   0.975     1
C CT CT C9 9 0.0 1.25520 1   sC   sCT   sCT   sC9     9    1.25520   1.008     1
C CT CT CA 9 0.0 2.17568 1   sC   sCT   sCT   sCA     9    2.17568   1.748     1
C CT CT CC 9 0.0 2.92880 1   sC   sCT   sCT   sCC     9    2.92880   2.353     1
C CT CT SH 9 180.0 0.66944 1   sC   sCT   sCT   sSH     9    0.66944   0.538     1
Cl CT CT Cl 9 180.0 1.88280 1  sCl   sCT   sCT   sCl     9    1.88280   1.513     1
CM CM C O 9 180.0 9.10020 2  sCM   sCM    sC    sO     9    9.10020   7.311     2
CM CM C O 9 0.0 1.25520 3  sCM   sCM    sC    sO     9    1.25520   1.008     3
C N C1 C 9 0.0 0.35267 1   sC    sN   sC1    sC     9    0.35267   0.283     1
C N C1 C 9 0.0 1.59541 2   sC    sN   sC1    sC     9    1.59541   1.282     2
C N C1 C 9 180.0 0.08381 3   sC    sN   sC1    sC     9    0.08381   0.067     3
C N C1 C 9 0.0 0.32396 4   sC    sN   sC1    sC     9    0.32396   0.260     4
C N C7 C 9 0.0 1.12968 2   sC    sN   sC7    sC     9    1.12968   0.908     2
C N C7 C 9 0.0 1.75728 3   sC    sN   sC7    sC     9    1.75728   1.412     3
C N CT C 9 180.0 0.14226 1   sC    sN   sCT    sC     9    0.14226   0.114     1
C N CT C 9 0.0 1.40164 2   sC    sN   sCT    sC     9    1.40164   1.126     2
C N CT C 9 0.0 2.27610 3   sC    sN   sCT    sC     9    2.27610   1.829     3
C N CT C 9 0.0 0.33472 4   sC    sN   sCT    sC     9    0.33472   0.269     4
CT C7 C N 9 0.0 0.83680 1  sCT   sC7    sC    sN     9    0.83680   0.672     1
CT C7 C N 9 0.0 0.83680 2  sCT   sC7    sC    sN     9    0.83680   0.672     2
CT C7 C N 9 0.0 1.67360 3  sCT   sC7    sC    sN     9    1.67360   1.345     3
CT C7 N C 9 0.0 8.36800 1  sCT   sC7    sN    sC     9    8.36800   6.723     1
CT C7 N C 9 0.0 8.36800 2  sCT   sC7    sN    sC     9    8.36800   6.723     2
CT C7 N C 9 0.0 1.67360 3  sCT   sC7    sN    sC     9    1.67360   1.345     3
CT C9 C O2 9 180.0 2.51040 2  sCT   sC9    sC   sO2     9    2.51040   2.017     2
CT C9 C O 9 180.0 2.51040 2  sCT   sC9    sC    sO     9    2.51040   2.017     2
CT C9 C OB 9 180.0 2.51040 2  sCT   sC9    sC   sOB     9    2.51040   2.017     2
CT CM CM CT 9 180.0 27.82360 2  sCT   sCM   sCM   sCT     9    27.82360  22.353    2
CT CM CM CT 9 180.0 7.94960 1  sCT   sCM   sCM   sCT     9    7.94960   6.387     1
CT CT C4 CT 9 0.0 0.62760 3  sCT   sCT   sC4   sCT     9    0.62760   0.504     3
CT CT C5 O 9 180.0 4.18400 1  sCT   sCT   sC5    sO     9    4.18400   3.361     1
CT CT C6 O2 9 180.0 0.77822 4  sCT   sCT   sC6   sO2     9    0.77822   0.625     4
CT CT C6 O2 9 180.0 1.48114 6  sCT   sCT   sC6   sO2     9    1.48114   1.190     6
CT CT C6 O2 9 180.0 3.65263 2  sCT   sCT   sC6   sO2     9    3.65263   2.934     2
CT CT C* CW 9 0.0 5.02080 1  sCT   sCT   sC*   sCW     9    5.02080   4.034     1
CT CT C N 9 0.0 0.83680 1  sCT   sCT    sC    sN     9    0.83680   0.672     1
CT CT C N 9 0.0 0.83680 2  sCT   sCT    sC    sN     9    0.83680   0.672     2
CT CT C N 9 0.0 1.67360 3  sCT   sCT    sC    sN     9    1.67360   1.345     3
CT CT CT C3 9 0.0 0.62760 3  sCT   sCT   sCT   sC3     9    0.62760   0.504     3
CT CT CT C7 9 0.0 0.75312 3  sCT   sCT   sCT   sC7     9    0.75312   0.605     3
CT CT CT C7 9 180.0 0.83680 1  sCT   sCT   sCT   sC7     9    0.83680   0.672     1
CT CT CT C7 9 180.0 1.04600 2  sCT   sCT   sCT   sC7     9    1.04600   0.840     2
CT CT CT CT 9 0.0 0.62760 3  sCT   sCT   sCT   sCT     9    0.62760   0.504     3
CT CT N C 9 0.0 1.67360 3  sCT   sCT    sN    sC     9    1.67360   1.345     3
CT CT N C 9 0.0 8.36800 1  sCT   sCT    sN    sC     9    8.36800   6.723     1
CT CT N C 9 0.0 8.36800 2  sCT   sCT    sN    sC     9    8.36800   6.723     2
CT CT OS C 9 0.0 1.60247 3  sCT   sCT   sOS    sC     9    1.60247   1.287     3
CT CT OS C 9 180.0 3.34720 1  sCT   sCT   sOS    sC     9    3.34720   2.689     1
CT CT OS CT 9 0.0 1.60247 3  sCT   sCT   sOS   sCT     9    1.60247   1.287     3
CT CT OS CT 9 180.0 0.41840 2  sCT   sCT   sOS   sCT     9    0.41840   0.336     2
CT CT SH HS 9 0.0 0.83680 3  sCT   sCT   sSH   sHS     9    0.83680   0.672     3
CT CT SH HS 9 0.0 2.09200 2  sCT   sCT   sSH   sHS     9    2.09200   1.681     2
CT OS CT N* 9 0.0 1.60247 3  sCT   sOS   sCT   sN*     9    1.60247   1.287     3
CT OS CT N* 9 0.0 2.71960 2  sCT   sOS   sCT   sN*     9    2.71960   2.185     2
CT OS CT OS 9 0.0 0.41840 3  sCT   sOS   sCT   sOS     9    0.41840   0.336     3
CT OS CT OS 9 180.0 3.55640 2  sCT   sOS   sCT   sOS     9    3.55640   2.857     2
CT OS CT OS 9 180.0 5.64840 1  sCT   sOS   sCT   sOS     9    5.64840   4.538     1
CT S S CT 9 0.0 14.64400 2  sCT    sS    sS   sCT     9    14.64400  11.765    2
CT S S CT 9 0.0 2.51040 3  sCT    sS    sS   sCT     9    2.51040   2.017     3
F CT CT F 9 180.0 5.02080 1   sF   sCT   sCT    sF     9    5.02080   4.034     1
H1 C1 C O 9 0.0 3.34720 1  sH1   sC1    sC    sO     9    3.34720   2.689     1
H1 C1 C O 9 180.0 0.33472 3  sH1   sC1    sC    sO     9    0.33472   0.269     3
H1 C7 C O 9 0.0 3.34720 1  sH1   sC7    sC    sO     9    3.34720   2.689     1
H1 C7 C O 9 180.0 0.33472 3  sH1   sC7    sC    sO     9    0.33472   0.269     3
H1 CT C O 9 0.0 3.34720 1  sH1   sCT    sC    sO     9    3.34720   2.689     1
H1 CT C O 9 180.0 0.33472 3  sH1   sCT    sC    sO     9    0.33472   0.269     3
H1 C1 C OB 9 0.0 3.34720 1  sH1   sC1    sC   sOB     9    3.34720   2.689     1
H1 C1 C OB 9 180.0 0.33472 3  sH1   sC1    sC   sOB     9    0.33472   0.269     3
H1 C7 C OB 9 0.0 3.34720 1  sH1   sC7    sC   sOB     9    3.34720   2.689     1
H1 C7 C OB 9 180.0 0.33472 3  sH1   sC7    sC   sOB     9    0.33472   0.269     3
H1 CT C OB 9 0.0 3.34720 1  sH1   sCT    sC   sOB     9    3.34720   2.689     1
H1 CT C OB 9 180.0 0.33472 3  sH1   sCT    sC   sOB     9    0.33472   0.269     3
H1 CT CT Br 9 0.0 2.30120 1  sH1   sCT   sCT   sBr     9    2.30120   1.849     1
H1 CT CT Cl 9 0.0 1.04600 1  sH1   sCT   sCT   sCl     9    1.04600   0.840     1
H1 CT CT F 9 0.0 0.79496 1  sH1   sCT   sCT    sF     9    0.79496   0.639     1
H1 CT CT OH 9 0.0 1.04600 1  sH1   sCT   sCT   sOH     9    1.04600   0.840     1
H1 CT CT OS 9 0.0 1.04600 1  sH1   sCT   sCT   sOS     9    1.04600   0.840     1
HC C3 CT CT 9 0.0 0.66944 3  sHC   sC3   sCT   sCT     9    0.66944   0.538     3
HC C4 CT CT 9 0.0 0.66944 3  sHC   sC4   sCT   sCT     9    0.66944   0.538     3
HC C4 CT HC 9 0.0 0.62760 3  sHC   sC4   sCT   sHC     9    0.62760   0.504     3
HC CT C3 HC 9 0.0 0.62760 3  sHC   sCT   sC3   sHC     9    0.62760   0.504     3
HC CT C4 CT 9 0.0 0.66944 3  sHC   sCT   sC4   sCT     9    0.66944   0.538     3
HC CT C5 O 9 0.0 3.34720 1  sHC   sCT   sC5    sO     9    3.34720   2.689     1
HC CT C5 O 9 180.0 0.33472 3  sHC   sCT   sC5    sO     9    0.33472   0.269     3
HC CT CM CM 9 0.0 4.81160 1  sHC   sCT   sCM   sCM     9    4.81160   3.866     1
HC CT CM CM 9 180.0 1.58992 3  sHC   sCT   sCM   sCM     9    1.58992   1.277     3
HC CT C O 9 0.0 3.34720 1  sHC   sCT    sC    sO     9    3.34720   2.689     1
HC CT C O 9 180.0 0.33472 3  sHC   sCT    sC    sO     9    0.33472   0.269     3
HC CT C OB 9 0.0 3.34720 1  sHC   sCT    sC   sOB     9    3.34720   2.689     1
HC CT C OB 9 180.0 0.33472 3  sHC   sCT    sC   sOB     9    0.33472   0.269     3
HC CT CT Br 9 0.0 2.30120 1  sHC   sCT   sCT   sBr     9    2.30120   1.849     1
HC CT CT C3 9 0.0 0.66944 3  sHC   sCT   sCT   sC3     9    0.66944   0.538     3
HC CT CT C4 9 0.0 0.66944 3  sHC   sCT   sCT   sC4     9    0.66944   0.538     3
HC CT CT C7 9 0.0 0.66944 3  sHC   sCT   sCT   sC7     9    0.66944   0.538     3
HC CT CT Cl 9 0.0 1.04600 1  sHC   sCT   sCT   sCl     9    1.04600   0.840     1
HC CT CT CT 9 0.0 0.66944 3  sHC   sCT   sCT   sCT     9    0.66944   0.538     3
HC CT CT F 9 0.0 0.79496 1  sHC   sCT   sCT    sF     9    0.79496   0.639     1
HC CT CT HC 9 0.0 0.62760 3  sHC   sCT   sCT   sHC     9    0.62760   0.504     3
HC CT CT OH 9 0.0 1.04600 1  sHC   sCT   sCT   sOH     9    1.04600   0.840     1
HC CT CT OS 9 0.0 1.04600 1  sHC   sCT   sCT   sOS     9    1.04600   0.840     1
H N C5 O 9 0.0 8.36800 1   sH    sN   sC5    sO     9    8.36800   6.723     1
H N C5 O 9 180.0 10.46000 2   sH    sN   sC5    sO     9    10.46000  8.403     2
H N C O 9 0.0 8.36800 1   sH    sN    sC    sO     9    8.36800   6.723     1
H N C O 9 180.0 10.46000 2   sH    sN    sC    sO     9    10.46000  8.403     2
HB N C OB 9 0.0 8.36800 1  sHB    sN    sC   sOB     9    8.36800   6.723     1
HB N C OB 9 180.0 10.46000 2  sHB    sN    sC   sOB     9    10.46000  8.403     2
HO O3 C8 CT 9 0.0 0.35982 1  sHO   sO3   sC8   sCT     9    0.35982   0.289     1
HO O3 C8 CT 9 0.0 0.41840 3  sHO   sO3   sC8   sCT     9    0.41840   0.336     3
HO O3 C8 CT 9 180.0 0.68199 2  sHO   sO3   sC8   sCT     9    0.68199   0.548     2
HO O3 C8 H1 9 0.0 0.41840 3  sHO   sO3   sC8   sH1     9    0.41840   0.336     3
HO OH C8 CT 9 0.0 0.25104 2  sHO   sOH   sC8   sCT     9    0.25104   0.202     2
HO OH C8 CT 9 0.0 0.83680 3  sHO   sOH   sC8   sCT     9    0.83680   0.672     3
HO OH C8 CT 9 0.0 3.13800 1  sHO   sOH   sC8   sCT     9    3.13800   2.521     1
HO OH C O 9 0.0 7.94960 1  sHO   sOH    sC    sO     9    7.94960   6.387     1
HO OH C O 9 180.0 9.62320 2  sHO   sOH    sC    sO     9    9.62320   7.731     2
HO OH CT CT 9 0.0 0.66944 3  sHO   sOH   sCT   sCT     9    0.66944   0.538     3
HO OH CT CT 9 0.0 1.04600 1  sHO   sOH   sCT   sCT     9    1.04600   0.840     1
N3 CT CT C3 9 0.0 0.81630 1  sN3   sCT   sCT   sC3     9    0.81630   0.656     1
N3 CT CT C3 9 180.0 3.53925 2  sN3   sCT   sCT   sC3     9    3.53925   2.843     2
N3 CT CT C6 9 180.0 11.02568 1  sN3   sCT   sCT   sC6     9    11.02568  8.858     1
N3 CT CT C6 9 180.0 4.98022 2  sN3   sCT   sCT   sC6     9    4.98022   4.001     2
N3 CT CT C6 9 180.0 0.02845 3  sN3   sCT   sCT   sC6     9    0.02845   0.023     3
N3 CT CT C6 9 0.0 1.76858 4  sN3   sCT   sCT   sC6     9    1.76858   1.421     4
N3 CT CT C6 9 0.0 0.96943 5  sN3   sCT   sCT   sC6     9    0.96943   0.779     5
N3 CT CT C6 9 180.0 0.89009 6  sN3   sCT   sCT   sC6     9    0.89009   0.715     6
N C1 C N 9 180.0 2.69445 1   sN   sC1    sC    sN     9    2.69445   2.165     1
N C1 C N 9 180.0 6.68666 2   sN   sC1    sC    sN     9    6.68666   5.372     2
N C1 C N 9 180.0 1.67111 3   sN   sC1    sC    sN     9    1.67111   1.343     3
N C1 C N 9 0.0 0.31419 4   sN   sC1    sC    sN     9    0.31419   0.252     4
N C5 CT CT 9 180.0 4.37772 1   sN   sC5   sCT   sCT     9    4.37772   3.517     1
N C5 CT CT 9 180.0 0.75730 2   sN   sC5   sCT   sCT     9    0.75730   0.608     2
N C5 CT CT 9 180.0 0.14811 3   sN   sC5   sCT   sCT     9    0.14811   0.119     3
N C5 CT CT 9 0.0 0.41966 4   sN   sC5   sCT   sCT     9    0.41966   0.337     4
N C5 CT CT 9 0.0 0.54308 5   sN   sC5   sCT   sCT     9    0.54308   0.436     5
N C5 CT CT 9 180.0 0.44373 6   sN   sC5   sCT   sCT     9    0.44373   0.356     6
N C7 C N 9 180.0 1.88280 1   sN   sC7    sC    sN     9    1.88280   1.513     1
N C7 C N 9 180.0 6.61072 2   sN   sC7    sC    sN     9    6.61072   5.311     2
N C7 C N 9 180.0 2.30120 3   sN   sC7    sC    sN     9    2.30120   1.849     3
N CT C8 CT 9 0.0 0.25104 1   sN   sCT   sC8   sCT     9    0.25104   0.202     1
N CT C8 CT 9 180.0 2.09200 2   sN   sCT   sC8   sCT     9    2.09200   1.681     2
N CT C8 CT 9 0.0 0.62760 3   sN   sCT   sC8   sCT     9    0.62760   0.504     3
N CT C8 CT 9 180.0 0.27196 4   sN   sCT   sC8   sCT     9    0.27196   0.218     4
N CT C8 O3 9 180.0 0.33472 1   sN   sCT   sC8   sO3     9    0.33472   0.269     1
N CT C8 OH 9 180.0 1.04600 1   sN   sCT   sC8   sOH     9    1.04600   0.840     1
N CT C N 9 360.0 0.82425 1   sN   sCT    sC    sN     9    0.82425   0.662     1
N CT C N 9 180.0 6.04588 2   sN   sCT    sC    sN     9    6.04588   4.857     2
N CT C N 9 180.0 2.00414 3   sN   sCT    sC    sN     9    2.00414   1.610     3
N CT C N 9 360.0 0.07991 4   sN   sCT    sC    sN     9    0.07991   0.064     4
N CT C N 9 360.0 0.01674 5   sN   sCT    sC    sN     9    0.01674   0.013     5
N CT CT C3 9 0.0 0.81630 1   sN   sCT   sCT   sC3     9    0.81630   0.656     1
N CT CT C3 9 180.0 3.53925 2   sN   sCT   sCT   sC3     9    3.53925   2.843     2
N CT CT C5 9 180.0 2.63592 1   sN   sCT   sCT   sC5     9    2.63592   2.118     1
N CT CT C6 9 180.0 12.05410 1   sN   sCT   sCT   sC6     9    12.05410  9.684     1
N CT CT C6 9 180.0 5.06682 2   sN   sCT   sCT   sC6     9    5.06682   4.071     2
N CT CT C6 9 0.0 0.25941 3   sN   sCT   sCT   sC6     9    0.25941   0.208     3
N CT CT C6 9 0.0 1.02508 4   sN   sCT   sCT   sC6     9    1.02508   0.824     4
N CT CT C6 9 0.0 0.54810 5   sN   sCT   sCT   sC6     9    0.54810   0.440     5
N CT CT C6 9 180.0 0.59413 6   sN   sCT   sCT   sC6     9    0.59413   0.477     6
N CT CT C9 9 0.0 0.41840 1   sN   sCT   sCT   sC9     9    0.41840   0.336     1
N CT CT CC 9 180.0 1.67360 1   sN   sCT   sCT   sCC     9    1.67360   1.345     1
N CT CT SH 9 180.0 2.30120 1   sN   sCT   sCT   sSH     9    2.30120   1.849     1
N CT CT SH 9 180.0 2.63592 2   sN   sCT   sCT   sSH     9    2.63592   2.118     2
N CT CT SH 9 180.0 0.25104 3   sN   sCT   sCT   sSH     9    0.25104   0.202     3
N CT CT SH 9 180.0 0.12552 4   sN   sCT   sCT   sSH     9    0.12552   0.101     4
O C OS CT 9 180.0 5.85760 1   sO    sC   sOS   sCT     9    5.85760   4.706     1
O C OS CT 9 180.0 11.29680 2   sO    sC   sOS   sCT     9    11.29680  9.076     2
OH CT CT OH 9 0.0 0.60250 3  sOH   sCT   sCT   sOH     9    0.60250   0.484     3
OH CT CT OH 9 0.0 4.91620 2  sOH   sCT   sCT   sOH     9    4.91620   3.950     2
OH P OS CT 9 0.0 1.04600 3  sOH    sP   sOS   sCT     9    1.04600   0.840     3
OH P OS CT 9 0.0 5.02080 2  sOH    sP   sOS   sCT     9    5.02080   4.034     2
OS CT CT OH 9 0.0 0.60250 3  sOS   sCT   sCT   sOH     9    0.60250   0.484     3
OS CT CT OH 9 0.0 4.91620 2  sOS   sCT   sCT   sOH     9    4.91620   3.950     2
OS CT CT OS 9 0.0 4.91620 2  sOS   sCT   sCT   sOS     9    4.91620   3.950     2
OS CT CT OS 9 0.0 0.60250 3  sOS   sCT   sCT   sOS     9    0.60250   0.484     3
OS CT N* CK 9 0.0 10.46000 1  sOS   sCT   sN*   sCK     9    10.46000  8.403     1
OS CT N* CM 9 0.0 10.46000 1  sOS   sCT   sN*   sCM     9    10.46000  8.403     1
OS P OS CT 9 0.0 5.02080 2  sOS    sP   sOS   sCT     9    5.02080   4.034     2
OS P OS CT 9 0.0 1.04600 3  sOS    sP   sOS   sCT     9    1.04600   0.840     3
N CT CT CA 9 0.0 0.00000 0   sN   sCT   sCT   sCA     9    0.00000   0.000     0
N CT CT C* 9 0.0 0.00000 0   sN   sCT   sCT   sC*     9    0.00000   0.000     0
CT CT C9 S 9 0.0 0.00000 0  sCT   sCT   sC9    sS     9    0.00000   0.000     0
CT CT C9 CT 9 0.0 0.00000 0  sCT   sCT   sC9   sCT     9    0.00000   0.000     0
X C1 N3 X 9 0.0 0.65084 3    X   sC1   sN3     X     9    0.65084   0.523     3
X C5 N X 9 180.0 10.46000 2    X   sC5    sN     X     9    10.46000  8.403     2
X C7 CT X 9 0.0 0.65084 3    X   sC7   sCT     X     9    0.65084   0.523     3
X C7 N3 X 9 0.0 0.65084 3    X   sC7   sN3     X     9    0.65084   0.523     3
X C8 O3 X 9 0.0 0.69873 3    X   sC8   sO3     X     9    0.69873   0.561     3
X C8 OH X 9 0.0 0.69873 3    X   sC8   sOH     X     9    0.69873   0.561     3
X C9 S X 9 0.0 1.39327 3    X   sC9    sS     X     9    1.39327   1.119     3
X CA CA X 9 180.0 15.16700 2    X   sCA   sCA     X     9    15.16700  12.185    2
X CA CB X 9 180.0 14.64400 2    X   sCA   sCB     X     9    14.64400  11.765    2
X CA CM X 9 180.0 10.66920 2    X   sCA   sCM     X     9    10.66920  8.571     2
X CA CN X 9 180.0 15.16700 2    X   sCA   sCN     X     9    15.16700  12.185    2
X CA N2 X 9 180.0 10.04160 2    X   sCA   sN2     X     9    10.04160  8.067     2
X CA NA X 9 180.0 6.27600 2    X   sCA   sNA     X     9    6.27600   5.042     2
X CA NC X 9 180.0 20.08320 2    X   sCA   sNC     X     9    20.08320  16.134    2
X CA OH X 9 180.0 3.76560 2    X   sCA   sOH     X     9    3.76560   3.025     2
X CB CB X 9 180.0 22.80280 2    X   sCB   sCB     X     9    22.80280  18.319    2
X CB CN X 9 180.0 12.55200 2    X   sCB   sCN     X     9    12.55200  10.084    2
X CB NB X 9 180.0 10.66920 2    X   sCB   sNB     X     9    10.66920  8.571     2
X CB NC X 9 180.0 17.36360 2    X   sCB   sNC     X     9    17.36360  13.950    2
X CB N* X 9 180.0 6.90360 2    X   sCB   sN*     X     9    6.90360   5.546     2
X C CA X 9 180.0 15.16700 2    X    sC   sCA     X     9    15.16700  12.185    2
X C CB X 9 180.0 12.55200 2    X    sC   sCB     X     9    12.55200  10.084    2
X C* CB X 9 180.0 7.00820 2    X   sC*   sCB     X     9    7.00820   5.630     2
X CC CV X 9 180.0 21.54760 2    X   sCC   sCV     X     9    21.54760  17.311    2
X CC CW X 9 180.0 22.48900 2    X   sCC   sCW     X     9    22.48900  18.067    2
X C CM X 9 180.0 9.10020 2    X    sC   sCM     X     9    9.10020   7.311     2
X CC NA X 9 180.0 5.85760 2    X   sCC   sNA     X     9    5.85760   4.706     2
X CC NB X 9 180.0 10.04160 2    X   sCC   sNB     X     9    10.04160  8.067     2
X C* CW X 9 180.0 27.30060 2    X   sC*   sCW     X     9    27.30060  21.933    2
X C C X 9 180.0 15.16700 2    X    sC    sC     X     9    15.16700  12.185    2
X CK NB X 9 180.0 41.84000 2    X   sCK   sNB     X     9    41.84000  33.613    2
X CK N* X 9 180.0 7.11280 2    X   sCK   sN*     X     9    7.11280   5.714     2
X CM CM X 9 180.0 27.82360 2    X   sCM   sCM     X     9    27.82360  22.353    2
X CM N* X 9 180.0 7.74040 2    X   sCM   sN*     X     9    7.74040   6.218     2
X CM OS X 9 180.0 4.39320 2    X   sCM   sOS     X     9    4.39320   3.529     2
X C NA X 9 180.0 5.64840 2    X    sC   sNA     X     9    5.64840   4.538     2
X C NC X 9 180.0 16.73600 2    X    sC   sNC     X     9    16.73600  13.445    2
X CN NA X 9 180.0 6.38060 2    X   sCN   sNA     X     9    6.38060   5.126     2
X C N X 9 180.0 10.46000 2    X    sC    sN     X     9    10.46000  8.403     2
X C N* X 9 180.0 6.06680 2    X    sC   sN*     X     9    6.06680   4.874     2
X C OH X 9 180.0 9.62320 2    X    sC   sOH     X     9    9.62320   7.731     2
X C OS X 9 180.0 11.29680 2    X    sC   sOS     X     9    11.29680  9.076     2
X C O X 9 180.0 11.71520 2    X    sC    sO     X     9    11.71520  9.412     2
X C OB X 9 180.0 11.71520 2    X    sC   sOB     X     9    11.71520  9.412     2
X CQ NC X 9 180.0 28.45120 2    X   sCQ   sNC     X     9    28.45120  22.857    2
X CR NA X 9 180.0 9.72780 2    X   sCR   sNA     X     9    9.72780   7.815     2
X CR NB X 9 180.0 20.92000 2    X   sCR   sNB     X     9    20.92000  16.807    2
X CT C8 X 9 0.0 0.64852 3    X   sCT   sC8     X     9    0.64852   0.521     3
X CT C9 X 9 0.0 0.64852 3    X   sCT   sC9     X     9    0.64852   0.521     3
X CT CT X 9 0.0 0.65084 3    X   sCT   sCT     X     9    0.65084   0.523     3
X CT N3 X 9 0.0 0.65084 3    X   sCT   sN3     X     9    0.65084   0.523     3
X CT OH X 9 0.0 0.69733 3    X   sCT   sOH     X     9    0.69733   0.560     3
X CT OS X 9 0.0 1.60387 3    X   sCT   sOS     X     9    1.60387   1.289     3
X CT SH X 9 0.0 1.04600 3    X   sCT   sSH     X     9    1.04600   0.840     3
X CT S X 9 0.0 1.39467 3    X   sCT    sS     X     9    1.39467   1.120     3
X CV NB X 9 180.0 10.04160 2    X   sCV   sNB     X     9    10.04160  8.067     2
X CW NA X 9 180.0 6.27600 2    X   sCW   sNA     X     9    6.27600   5.042     2
X OH P X 9 0.0 1.04600 3    X   sOH    sP     X     9    1.04600   0.840     3
X OS P X 9 0.0 1.04600 3    X   sOS    sP     X     9    1.04600   0.840     3
X C1 N X 9 0.0 0.00000 0    X   sC1    sN     X     9    0.00000   0.000     0
X C C1 X 9 0.0 0.00000 0    X    sC   sC1     X     9    0.00000   0.000     0
X C C9 X 9 0.0 0.00000 0    X    sC   sC9     X     9    0.00000   0.000     0
X C CT X 9 0.0 0.00000 0    X    sC   sCT     X     9    0.00000   0.000     0
X CA CT X 9 0.0 0.00000 0    X   sCA   sCT     X     9    0.00000   0.000     0
X CC CT X 9 0.0 0.00000 0    X   sCC   sCT     X     9    0.00000   0.000     0
X CM CT X 9 0.0 0.00000 0    X   sCM   sCT     X     9    0.00000   0.000     0
X CT N X 9 0.0 0.00000 0    X   sCT    sN     X     9    0.00000   0.000     0
X CT N* X 9 0.0 0.00000 0    X   sCT   sN*     X     9    0.00000   0.000     0
X CT N2 X 9 0.0 0.00000 0    X   sCT   sN2     X     9    0.00000   0.000     0
X C* CT X 9 0.0 0.00000 0    X   sC*   sCT     X     9    0.00000   0.000     0
X C7 N X 9 0.0 0.00000 0    X   sC7    sN     X     9    0.00000   0.000     0
X C C7 X 9 0.0 0.00000 0    X    sC   sC7     X     9    0.00000   0.000     0
X C5 CT X 9 0.0 0.00000 0    X   sC5   sCT     X     9    0.00000   0.000     0
X C6 CT X 9 0.0 0.00000 0    X   sC6   sCT     X     9    0.00000   0.000     0
C C1 N O 4 180.0 4.60240 2   sC   sC1    sN    sO     4    4.60240   3.437     2
C C1 N OB 4 180.0 4.60240 2   sC   sC1    sN   sOB     4    4.60240   3.437     2
C C1 N H 4 180.0 4.60240 2   sC   sC1    sN    sH     4    4.60240   3.437     2
C C1 N HB 4 180.0 4.60240 2   sC   sC1    sN   sHB     4    4.60240   3.437     2
C9 O C OH 4 180.0 43.93200 2  sC9    sO    sC   sOH     4    43.93200  32.810    2
CB CK N* CT 4 180.0 4.18400 2  sCB   sCK   sN*   sCT     4    4.18400   3.125     2
C CM N* CT 4 180.0 4.18400 2   sC   sCM   sN*   sCT     4    4.18400   3.125     2
CT O C OH 4 180.0 43.93200 2  sCT    sO    sC   sOH     4    43.93200  32.810    2
CT CV CC NA 4 180.0 4.60240 2  sCT   sCV   sCC   sNA     4    4.60240   3.437     2
CT CW CC NB 4 180.0 4.60240 2  sCT   sCW   sCC   sNB     4    4.60240   3.437     2
CT CC CW NB 4 180.0 4.60240 2  sCT   sCC   sCW   sNB     4    4.60240   3.437     2
CT CW CC NA 4 180.0 4.60240 2  sCT   sCW   sCC   sNA     4    4.60240   3.437     2
CB CT C* CW 4 180.0 4.60240 2  sCB   sCT   sC*   sCW     4    4.60240   3.437     2
CA CA CA CT 4 180.0 4.60240 2  sCA   sCA   sCA   sCT     4    4.60240   3.437     2
C CM CM CT 4 180.0 4.60240 2   sC   sCM   sCM   sCT     4    4.60240   3.437     2
CM N2 CA NC 4 180.0 4.60240 2  sCM   sN2   sCA   sNC     4    4.60240   3.437     2
CB N2 CA NC 4 180.0 4.60240 2  sCB   sN2   sCA   sNC     4    4.60240   3.437     2
N2 NA CA NC 4 180.0 4.60240 2  sN2   sNA   sCA   sNC     4    4.60240   3.437     2
CA CA C OH 4 180.0 4.60240 2  sCA   sCA    sC   sOH     4    4.60240   3.437     2
CA CA CA OH 4 180.0 4.60240 2  sCA   sCA   sCA   sOH     4    4.60240   3.437     2
H5 O C OH 4 180.0 4.60240 2  sH5    sO    sC   sOH     4    4.60240   3.437     2
H5 O C OS 4 180.0 4.60240 2  sH5    sO    sC   sOS     4    4.60240   3.437     2
CM CT CM HA 4 180.0 4.60240 2  sCM   sCT   sCM   sHA     4    4.60240   3.437     2
Br CA CA CA 4 180.0 4.60240 2  sBr   sCA   sCA   sCA     4    4.60240   3.437     2
CM H4 C O 4 180.0 4.60240 2  sCM   sH4    sC    sO     4    4.60240   3.437     2
C CT N H 4 180.0 4.60240 2   sC   sCT    sN    sH     4    4.60240   3.437     2
C CT N HB 4 180.0 4.60240 2   sC   sCT    sN   sHB     4    4.60240   3.437     2
C CT N O 4 180.0 4.60240 2   sC   sCT    sN    sO     4    4.60240   3.437     2
C C7 N O 4 180.0 4.60240 2   sC   sC7    sN    sO     4    4.60240   3.437     2
C CT N OB 4 180.0 4.60240 2   sC   sCT    sN   sOB     4    4.60240   3.437     2
C C7 N OB 4 180.0 4.60240 2   sC   sC7    sN   sOB     4    4.60240   3.437     2
C C7 N H 4 180.0 4.60240 2   sC   sC7    sN    sH     4    4.60240   3.437     2
C C7 N HB 4 180.0 4.60240 2   sC   sC7    sN   sHB     4    4.60240   3.437     2
C5 CT N O 4 180.0 4.60240 2  sC5   sCT    sN    sO     4    4.60240   3.437     2
C5 CT N OB 4 180.0 4.60240 2  sC5   sCT    sN   sOB     4    4.60240   3.437     2
C5 CT N H 4 180.0 4.60240 2  sC5   sCT    sN    sH     4    4.60240   3.437     2
C5 CT N HB 4 180.0 4.60240 2  sC5   sCT    sN   sHB     4    4.60240   3.437     2
X CT N C1 4 180.0 4.18400 2    X   sCT    sN   sC1     4    4.18400   3.125     2
X CT N C7 4 180.0 4.18400 2    X   sCT    sN   sC7     4    4.18400   3.125     2
X O2 C6 O2 4 180.0 43.93200 2    X   sO2   sC6   sO2     4    43.93200  32.810    2
X O2 C O2 4 180.0 43.93200 2    X   sO2    sC   sO2     4    43.93200  32.810    2
X N2 CA N2 4 180.0 43.93200 2    X   sN2   sCA   sN2     4    43.93200  32.810    2
X CT N CT 4 180.0 4.18400 2    X   sCT    sN   sCT     4    4.18400   3.125     2
X X C O 4 180.0 43.93200 2    X     X    sC    sO     4    43.93200  32.810    2
X X C OB 4 180.0 43.93200 2    X     X    sC   sOB     4    43.93200  32.810    2
X X N H 4 180.0 4.18400 2    X     X    sN    sH     4    4.18400   3.125     2
X X N2 H 4 180.0 4.18400 2    X     X   sN2    sH     4    4.18400   3.125     2
X X NA H 4 180.0 4.18400 2    X     X   sNA    sH     4    4.18400   3.125     2
X X CA HA 4 180.0 4.60240 2    X     X   sCA   sHA     4    4.60240   3.437     2
X X CW H4 4 180.0 4.60240 2    X     X   sCW   sH4     4    4.60240   3.437     2
X X CR H5 4 180.0 4.60240 2    X     X   sCR   sH5     4    4.60240   3.437     2
X X CV H4 4 180.0 4.60240 2    X     X   sCV   sH4     4    4.60240   3.437     2
X X CQ H5 4 180.0 4.60240 2    X     X   sCQ   sH5     4    4.60240   3.437     2
X X CK H5 4 180.0 4.60240 2    X     X   sCK   sH5     4    4.60240   3.437     2
X X CM H4 4 180.0 4.60240 2    X     X   sCM   sH4     4    4.60240   3.437     2
X X CM HA 4 180.0 4.60240 2    X     X   sCM   sHA     4    4.60240   3.437     2
X X CA H4 4 180.0 4.60240 2    X     X   sCA   sH4     4    4.60240   3.437     2
X X CA H5 4 180.0 4.60240 2    X     X   sCA   sH5     4    4.60240   3.437     2
X X C5 O 4 180.0 43.93200 2    X     X   sC5    sO     4    43.93200  32.810    2
C8 CT C N 9 0.0 0.83680 1  sC8   sCT    sC    sN     9    0.83680   0.625     1
C8 CT C N 9 0.0 0.83680 2  sC8   sCT    sC    sN     9    0.83680   0.625     2
C8 CT C N 9 0.0 1.67360 3  sC8   sCT    sC    sN     9    1.67360   1.250     3
C8 CT N C 9 0.0 8.36800 1  sC8   sCT    sN    sC     9    8.36800   6.250     1
C8 CT N C 9 0.0 8.36800 2  sC8   sCT    sN    sC     9    8.36800   6.250     2
C8 CT N C 9 0.0 1.67360 3  sC8   sCT    sN    sC     9    1.67360   1.250     3
C CT C8 O3 9 180.0 4.18400 1   sC   sCT   sC8   sO3     9    4.18400   3.125     1
C CT C8 OH 9 180.0 3.76560 1   sC   sCT   sC8   sOH     9    3.76560   2.812     1
C CT CT C4 9 0.0 2.39074 1   sC   sCT   sCT   sC4     9    2.39074   1.786     1
C CT CT C4 9 180.0 1.49913 2   sC   sCT   sCT   sC4     9    1.49913   1.120     2
C CT CT C4 9 0.0 0.56400 3   sC   sCT   sCT   sC4     9    0.56400   0.421     3
C CT CT C5 9 0.0 0.71421 1   sC   sCT   sCT   sC5     9    0.71421   0.533     1
C CT CT C5 9 180.0 2.49241 2   sC   sCT   sCT   sC5     9    2.49241   1.861     2
C CT CT C5 9 0.0 0.49580 3   sC   sCT   sCT   sC5     9    0.49580   0.370     3
C CT CT C5 9 180.0 1.74556 4   sC   sCT   sCT   sC5     9    1.74556   1.304     4
C CT CT C5 9 0.0 0.43597 5   sC   sCT   sCT   sC5     9    0.43597   0.326     5
C CT CT C5 9 180.0 0.42142 6   sC   sCT   sCT   sC5     9    0.42142   0.315     6
C CT CT C* 9 0.0 1.21336 1   sC   sCT   sCT   sC*     9    1.21336   0.906     1
C CT CT C9 9 0.0 1.25520 1   sC   sCT   sCT   sC9     9    1.25520   0.937     1
C CT CT CA 9 0.0 2.17568 1   sC   sCT   sCT   sCA     9    2.17568   1.625     1
C CT CT CC 9 0.0 2.92880 1   sC   sCT   sCT   sCC     9    2.92880   2.187     1
C CT CT SH 9 180.0 0.66944 1   sC   sCT   sCT   sSH     9    0.66944   0.500     1
Cl CT CT Cl 9 180.0 1.88280 1  sCl   sCT   sCT   sCl     9    1.88280   1.406     1
CM CM C O 9 180.0 9.10020 2  sCM   sCM    sC    sO     9    9.10020   6.796     2
CM CM C O 9 0.0 1.25520 3  sCM   sCM    sC    sO     9    1.25520   0.937     3
C N C1 C 9 0.0 0.35267 1   sC    sN   sC1    sC     9    0.35267   0.263     1
C N C1 C 9 0.0 1.59541 2   sC    sN   sC1    sC     9    1.59541   1.192     2
C N C1 C 9 180.0 0.08381 3   sC    sN   sC1    sC     9    0.08381   0.063     3
C N C1 C 9 0.0 0.32396 4   sC    sN   sC1    sC     9    0.32396   0.242     4
C N C7 C 9 0.0 1.12968 2   sC    sN   sC7    sC     9    1.12968   0.844     2
C N C7 C 9 0.0 1.75728 3   sC    sN   sC7    sC     9    1.75728   1.312     3
C N CT C 9 180.0 0.14226 1   sC    sN   sCT    sC     9    0.14226   0.106     1
C N CT C 9 0.0 1.40164 2   sC    sN   sCT    sC     9    1.40164   1.047     2
C N CT C 9 0.0 2.27610 3   sC    sN   sCT    sC     9    2.27610   1.700     3
C N CT C 9 0.0 0.33472 4   sC    sN   sCT    sC     9    0.33472   0.250     4
CT C7 C N 9 0.0 0.83680 1  sCT   sC7    sC    sN     9    0.83680   0.625     1
CT C7 C N 9 0.0 0.83680 2  sCT   sC7    sC    sN     9    0.83680   0.625     2
CT C7 C N 9 0.0 1.67360 3  sCT   sC7    sC    sN     9    1.67360   1.250     3
CT C7 N C 9 0.0 8.36800 1  sCT   sC7    sN    sC     9    8.36800   6.250     1
CT C7 N C 9 0.0 8.36800 2  sCT   sC7    sN    sC     9    8.36800   6.250     2
CT C7 N C 9 0.0 1.67360 3  sCT   sC7    sN    sC     9    1.67360   1.250     3
CT C9 C O2 9 180.0 2.51040 2  sCT   sC9    sC   sO2     9    2.51040   1.875     2
CT C9 C O 9 180.0 2.51040 2  sCT   sC9    sC    sO     9    2.51040   1.875     2
CT C9 C OB 9 180.0 2.51040 2  sCT   sC9    sC   sOB     9    2.51040   1.875     2
CT CM CM CT 9 180.0 27.82360 2  sCT   sCM   sCM   sCT     9    27.82360  20.780    2
CT CM CM CT 9 180.0 7.94960 1  sCT   sCM   sCM   sCT     9    7.94960   5.937     1
CT CT C4 CT 9 0.0 0.62760 3  sCT   sCT   sC4   sCT     9    0.62760   0.469     3
CT CT C5 O 9 180.0 4.18400 1  sCT   sCT   sC5    sO     9    4.18400   3.125     1
CT CT C6 O2 9 180.0 0.77822 4  sCT   sCT   sC6   sO2     9    0.77822   0.581     4
CT CT C6 O2 9 180.0 1.48114 6  sCT   sCT   sC6   sO2     9    1.48114   1.106     6
CT CT C6 O2 9 180.0 3.65263 2  sCT   sCT   sC6   sO2     9    3.65263   2.728     2
CT CT C* CW 9 0.0 5.02080 1  sCT   sCT   sC*   sCW     9    5.02080   3.750     1
CT CT C N 9 0.0 0.83680 1  sCT   sCT    sC    sN     9    0.83680   0.625     1
CT CT C N 9 0.0 0.83680 2  sCT   sCT    sC    sN     9    0.83680   0.625     2
CT CT C N 9 0.0 1.67360 3  sCT   sCT    sC    sN     9    1.67360   1.250     3
CT CT CT C3 9 0.0 0.62760 3  sCT   sCT   sCT   sC3     9    0.62760   0.469     3
CT CT CT C7 9 0.0 0.75312 3  sCT   sCT   sCT   sC7     9    0.75312   0.562     3
CT CT CT C7 9 180.0 0.83680 1  sCT   sCT   sCT   sC7     9    0.83680   0.625     1
CT CT CT C7 9 180.0 1.04600 2  sCT   sCT   sCT   sC7     9    1.04600   0.781     2
CT CT CT CT 9 0.0 0.62760 3  sCT   sCT   sCT   sCT     9    0.62760   0.469     3
CT CT N C 9 0.0 1.67360 3  sCT   sCT    sN    sC     9    1.67360   1.250     3
CT CT N C 9 0.0 8.36800 1  sCT   sCT    sN    sC     9    8.36800   6.250     1
CT CT N C 9 0.0 8.36800 2  sCT   sCT    sN    sC     9    8.36800   6.250     2
CT CT OS C 9 0.0 1.60247 3  sCT   sCT   sOS    sC     9    1.60247   1.197     3
CT CT OS C 9 180.0 3.34720 1  sCT   sCT   sOS    sC     9    3.34720   2.500     1
CT CT OS CT 9 0.0 1.60247 3  sCT   sCT   sOS   sCT     9    1.60247   1.197     3
CT CT OS CT 9 180.0 0.41840 2  sCT   sCT   sOS   sCT     9    0.41840   0.312     2
CT CT SH HS 9 0.0 0.83680 3  sCT   sCT   sSH   sHS     9    0.83680   0.625     3
CT CT SH HS 9 0.0 2.09200 2  sCT   sCT   sSH   sHS     9    2.09200   1.562     2
CT OS CT N* 9 0.0 1.60247 3  sCT   sOS   sCT   sN*     9    1.60247   1.197     3
CT OS CT N* 9 0.0 2.71960 2  sCT   sOS   sCT   sN*     9    2.71960   2.031     2
CT OS CT OS 9 0.0 0.41840 3  sCT   sOS   sCT   sOS     9    0.41840   0.312     3
CT OS CT OS 9 180.0 3.55640 2  sCT   sOS   sCT   sOS     9    3.55640   2.656     2
CT OS CT OS 9 180.0 5.64840 1  sCT   sOS   sCT   sOS     9    5.64840   4.218     1
CT S S CT 9 0.0 14.64400 2  sCT    sS    sS   sCT     9    14.64400  10.937    2
CT S S CT 9 0.0 2.51040 3  sCT    sS    sS   sCT     9    2.51040   1.875     3
F CT CT F 9 180.0 5.02080 1   sF   sCT   sCT    sF     9    5.02080   3.750     1
H1 C1 C O 9 0.0 3.34720 1  sH1   sC1    sC    sO     9    3.34720   2.500     1
H1 C1 C O 9 180.0 0.33472 3  sH1   sC1    sC    sO     9    0.33472   0.250     3
H1 C7 C O 9 0.0 3.34720 1  sH1   sC7    sC    sO     9    3.34720   2.500     1
H1 C7 C O 9 180.0 0.33472 3  sH1   sC7    sC    sO     9    0.33472   0.250     3
H1 CT C O 9 0.0 3.34720 1  sH1   sCT    sC    sO     9    3.34720   2.500     1
H1 CT C O 9 180.0 0.33472 3  sH1   sCT    sC    sO     9    0.33472   0.250     3
H1 C1 C OB 9 0.0 3.34720 1  sH1   sC1    sC   sOB     9    3.34720   2.500     1
H1 C1 C OB 9 180.0 0.33472 3  sH1   sC1    sC   sOB     9    0.33472   0.250     3
H1 C7 C OB 9 0.0 3.34720 1  sH1   sC7    sC   sOB     9    3.34720   2.500     1
H1 C7 C OB 9 180.0 0.33472 3  sH1   sC7    sC   sOB     9    0.33472   0.250     3
H1 CT C OB 9 0.0 3.34720 1  sH1   sCT    sC   sOB     9    3.34720   2.500     1
H1 CT C OB 9 180.0 0.33472 3  sH1   sCT    sC   sOB     9    0.33472   0.250     3
H1 CT CT Br 9 0.0 2.30120 1  sH1   sCT   sCT   sBr     9    2.30120   1.719     1
H1 CT CT Cl 9 0.0 1.04600 1  sH1   sCT   sCT   sCl     9    1.04600   0.781     1
H1 CT CT F 9 0.0 0.79496 1  sH1   sCT   sCT    sF     9    0.79496   0.594     1
H1 CT CT OH 9 0.0 1.04600 1  sH1   sCT   sCT   sOH     9    1.04600   0.781     1
H1 CT CT OS 9 0.0 1.04600 1  sH1   sCT   sCT   sOS     9    1.04600   0.781     1
HC C3 CT CT 9 0.0 0.66944 3  sHC   sC3   sCT   sCT     9    0.66944   0.500     3
HC C4 CT CT 9 0.0 0.66944 3  sHC   sC4   sCT   sCT     9    0.66944   0.500     3
HC C4 CT HC 9 0.0 0.62760 3  sHC   sC4   sCT   sHC     9    0.62760   0.469     3
HC CT C3 HC 9 0.0 0.62760 3  sHC   sCT   sC3   sHC     9    0.62760   0.469     3
HC CT C4 CT 9 0.0 0.66944 3  sHC   sCT   sC4   sCT     9    0.66944   0.500     3
HC CT C5 O 9 0.0 3.34720 1  sHC   sCT   sC5    sO     9    3.34720   2.500     1
HC CT C5 O 9 180.0 0.33472 3  sHC   sCT   sC5    sO     9    0.33472   0.250     3
HC CT CM CM 9 0.0 4.81160 1  sHC   sCT   sCM   sCM     9    4.81160   3.594     1
HC CT CM CM 9 180.0 1.58992 3  sHC   sCT   sCM   sCM     9    1.58992   1.187     3
HC CT C O 9 0.0 3.34720 1  sHC   sCT    sC    sO     9    3.34720   2.500     1
HC CT C O 9 180.0 0.33472 3  sHC   sCT    sC    sO     9    0.33472   0.250     3
HC CT C OB 9 0.0 3.34720 1  sHC   sCT    sC   sOB     9    3.34720   2.500     1
HC CT C OB 9 180.0 0.33472 3  sHC   sCT    sC   sOB     9    0.33472   0.250     3
HC CT CT Br 9 0.0 2.30120 1  sHC   sCT   sCT   sBr     9    2.30120   1.719     1
HC CT CT C3 9 0.0 0.66944 3  sHC   sCT   sCT   sC3     9    0.66944   0.500     3
HC CT CT C4 9 0.0 0.66944 3  sHC   sCT   sCT   sC4     9    0.66944   0.500     3
HC CT CT C7 9 0.0 0.66944 3  sHC   sCT   sCT   sC7     9    0.66944   0.500     3
HC CT CT Cl 9 0.0 1.04600 1  sHC   sCT   sCT   sCl     9    1.04600   0.781     1
HC CT CT CT 9 0.0 0.66944 3  sHC   sCT   sCT   sCT     9    0.66944   0.500     3
HC CT CT F 9 0.0 0.79496 1  sHC   sCT   sCT    sF     9    0.79496   0.594     1
HC CT CT HC 9 0.0 0.62760 3  sHC   sCT   sCT   sHC     9    0.62760   0.469     3
HC CT CT OH 9 0.0 1.04600 1  sHC   sCT   sCT   sOH     9    1.04600   0.781     1
HC CT CT OS 9 0.0 1.04600 1  sHC   sCT   sCT   sOS     9    1.04600   0.781     1
H N C5 O 9 0.0 8.36800 1   sH    sN   sC5    sO     9    8.36800   6.250     1
H N C5 O 9 180.0 10.46000 2   sH    sN   sC5    sO     9    10.46000  7.812     2
H N C O 9 0.0 8.36800 1   sH    sN    sC    sO     9    8.36800   6.250     1
H N C O 9 180.0 10.46000 2   sH    sN    sC    sO     9    10.46000  7.812     2
HB N C OB 9 0.0 8.36800 1  sHB    sN    sC   sOB     9    8.36800   6.250     1
HB N C OB 9 180.0 10.46000 2  sHB    sN    sC   sOB     9    10.46000  7.812     2
HO O3 C8 CT 9 0.0 0.35982 1  sHO   sO3   sC8   sCT     9    0.35982   0.269     1
HO O3 C8 CT 9 0.0 0.41840 3  sHO   sO3   sC8   sCT     9    0.41840   0.312     3
HO O3 C8 CT 9 180.0 0.68199 2  sHO   sO3   sC8   sCT     9    0.68199   0.509     2
HO O3 C8 H1 9 0.0 0.41840 3  sHO   sO3   sC8   sH1     9    0.41840   0.312     3
HO OH C8 CT 9 0.0 0.25104 2  sHO   sOH   sC8   sCT     9    0.25104   0.187     2
HO OH C8 CT 9 0.0 0.83680 3  sHO   sOH   sC8   sCT     9    0.83680   0.625     3
HO OH C8 CT 9 0.0 3.13800 1  sHO   sOH   sC8   sCT     9    3.13800   2.344     1
HO OH C O 9 0.0 7.94960 1  sHO   sOH    sC    sO     9    7.94960   5.937     1
HO OH C O 9 180.0 9.62320 2  sHO   sOH    sC    sO     9    9.62320   7.187     2
HO OH CT CT 9 0.0 0.66944 3  sHO   sOH   sCT   sCT     9    0.66944   0.500     3
HO OH CT CT 9 0.0 1.04600 1  sHO   sOH   sCT   sCT     9    1.04600   0.781     1
N3 CT CT C3 9 0.0 0.81630 1  sN3   sCT   sCT   sC3     9    0.81630   0.610     1
N3 CT CT C3 9 180.0 3.53925 2  sN3   sCT   sCT   sC3     9    3.53925   2.643     2
N3 CT CT C6 9 180.0 11.02568 1  sN3   sCT   sCT   sC6     9    11.02568  8.234     1
N3 CT CT C6 9 180.0 4.98022 2  sN3   sCT   sCT   sC6     9    4.98022   3.719     2
N3 CT CT C6 9 180.0 0.02845 3  sN3   sCT   sCT   sC6     9    0.02845   0.021     3
N3 CT CT C6 9 0.0 1.76858 4  sN3   sCT   sCT   sC6     9    1.76858   1.321     4
N3 CT CT C6 9 0.0 0.96943 5  sN3   sCT   sCT   sC6     9    0.96943   0.724     5
N3 CT CT C6 9 180.0 0.89009 6  sN3   sCT   sCT   sC6     9    0.89009   0.665     6
N C1 C N 9 180.0 2.69445 1   sN   sC1    sC    sN     9    2.69445   2.012     1
N C1 C N 9 180.0 6.68666 2   sN   sC1    sC    sN     9    6.68666   4.994     2
N C1 C N 9 180.0 1.67111 3   sN   sC1    sC    sN     9    1.67111   1.248     3
N C1 C N 9 0.0 0.31419 4   sN   sC1    sC    sN     9    0.31419   0.235     4
N C5 CT CT 9 180.0 4.37772 1   sN   sC5   sCT   sCT     9    4.37772   3.269     1
N C5 CT CT 9 180.0 0.75730 2   sN   sC5   sCT   sCT     9    0.75730   0.566     2
N C5 CT CT 9 180.0 0.14811 3   sN   sC5   sCT   sCT     9    0.14811   0.111     3
N C5 CT CT 9 0.0 0.41966 4   sN   sC5   sCT   sCT     9    0.41966   0.313     4
N C5 CT CT 9 0.0 0.54308 5   sN   sC5   sCT   sCT     9    0.54308   0.406     5
N C5 CT CT 9 180.0 0.44373 6   sN   sC5   sCT   sCT     9    0.44373   0.331     6
N C7 C N 9 180.0 1.88280 1   sN   sC7    sC    sN     9    1.88280   1.406     1
N C7 C N 9 180.0 6.61072 2   sN   sC7    sC    sN     9    6.61072   4.937     2
N C7 C N 9 180.0 2.30120 3   sN   sC7    sC    sN     9    2.30120   1.719     3
N CT C8 CT 9 0.0 0.25104 1   sN   sCT   sC8   sCT     9    0.25104   0.187     1
N CT C8 CT 9 180.0 2.09200 2   sN   sCT   sC8   sCT     9    2.09200   1.562     2
N CT C8 CT 9 0.0 0.62760 3   sN   sCT   sC8   sCT     9    0.62760   0.469     3
N CT C8 CT 9 180.0 0.27196 4   sN   sCT   sC8   sCT     9    0.27196   0.203     4
N CT C8 O3 9 180.0 0.33472 1   sN   sCT   sC8   sO3     9    0.33472   0.250     1
N CT C8 OH 9 180.0 1.04600 1   sN   sCT   sC8   sOH     9    1.04600   0.781     1
N CT C N 9 360.0 0.82425 1   sN   sCT    sC    sN     9    0.82425   0.616     1
N CT C N 9 180.0 6.04588 2   sN   sCT    sC    sN     9    6.04588   4.515     2
N CT C N 9 180.0 2.00414 3   sN   sCT    sC    sN     9    2.00414   1.497     3
N CT C N 9 360.0 0.07991 4   sN   sCT    sC    sN     9    0.07991   0.060     4
N CT C N 9 360.0 0.01674 5   sN   sCT    sC    sN     9    0.01674   0.013     5
N CT CT C3 9 0.0 0.81630 1   sN   sCT   sCT   sC3     9    0.81630   0.610     1
N CT CT C3 9 180.0 3.53925 2   sN   sCT   sCT   sC3     9    3.53925   2.643     2
N CT CT C5 9 180.0 2.63592 1   sN   sCT   sCT   sC5     9    2.63592   1.969     1
N CT CT C6 9 180.0 12.05410 1   sN   sCT   sCT   sC6     9    12.05410  9.003     1
N CT CT C6 9 180.0 5.06682 2   sN   sCT   sCT   sC6     9    5.06682   3.784     2
N CT CT C6 9 0.0 0.25941 3   sN   sCT   sCT   sC6     9    0.25941   0.194     3
N CT CT C6 9 0.0 1.02508 4   sN   sCT   sCT   sC6     9    1.02508   0.766     4
N CT CT C6 9 0.0 0.54810 5   sN   sCT   sCT   sC6     9    0.54810   0.409     5
N CT CT C6 9 180.0 0.59413 6   sN   sCT   sCT   sC6     9    0.59413   0.444     6
N CT CT C9 9 0.0 0.41840 1   sN   sCT   sCT   sC9     9    0.41840   0.312     1
N CT CT CC 9 180.0 1.67360 1   sN   sCT   sCT   sCC     9    1.67360   1.250     1
N CT CT SH 9 180.0 2.30120 1   sN   sCT   sCT   sSH     9    2.30120   1.719     1
N CT CT SH 9 180.0 2.63592 2   sN   sCT   sCT   sSH     9    2.63592   1.969     2
N CT CT SH 9 180.0 0.25104 3   sN   sCT   sCT   sSH     9    0.25104   0.187     3
N CT CT SH 9 180.0 0.12552 4   sN   sCT   sCT   sSH     9    0.12552   0.094     4
O C OS CT 9 180.0 5.85760 1   sO    sC   sOS   sCT     9    5.85760   4.375     1
O C OS CT 9 180.0 11.29680 2   sO    sC   sOS   sCT     9    11.29680  8.437     2
OH CT CT OH 9 0.0 0.60250 3  sOH   sCT   sCT   sOH     9    0.60250   0.450     3
OH CT CT OH 9 0.0 4.91620 2  sOH   sCT   sCT   sOH     9    4.91620   3.672     2
OH P OS CT 9 0.0 1.04600 3  sOH    sP   sOS   sCT     9    1.04600   0.781     3
OH P OS CT 9 0.0 5.02080 2  sOH    sP   sOS   sCT     9    5.02080   3.750     2
OS CT CT OH 9 0.0 0.60250 3  sOS   sCT   sCT   sOH     9    0.60250   0.450     3
OS CT CT OH 9 0.0 4.91620 2  sOS   sCT   sCT   sOH     9    4.91620   3.672     2
OS CT CT OS 9 0.0 4.91620 2  sOS   sCT   sCT   sOS     9    4.91620   3.672     2
OS CT CT OS 9 0.0 0.60250 3  sOS   sCT   sCT   sOS     9    0.60250   0.450     3
OS CT N* CK 9 0.0 10.46000 1  sOS   sCT   sN*   sCK     9    10.46000  7.812     1
OS CT N* CM 9 0.0 10.46000 1  sOS   sCT   sN*   sCM     9    10.46000  7.812     1
OS P OS CT 9 0.0 5.02080 2  sOS    sP   sOS   sCT     9    5.02080   3.750     2
OS P OS CT 9 0.0 1.04600 3  sOS    sP   sOS   sCT     9    1.04600   0.781     3
N CT CT CA 9 0.0 0.00000 0   sN   sCT   sCT   sCA     9    0.00000   0.000     0
N CT CT C* 9 0.0 0.00000 0   sN   sCT   sCT   sC*     9    0.00000   0.000     0
CT CT C9 S 9 0.0 0.00000 0  sCT   sCT   sC9    sS     9    0.00000   0.000     0
CT CT C9 CT 9 0.0 0.00000 0  sCT   sCT   sC9   sCT     9    0.00000   0.000     0
X C1 N3 X 9 0.0 0.65084 3    X   sC1   sN3     X     9    0.65084   0.486     3
X C5 N X 9 180.0 10.46000 2    X   sC5    sN     X     9    10.46000  7.812     2
X C7 CT X 9 0.0 0.65084 3    X   sC7   sCT     X     9    0.65084   0.486     3
X C7 N3 X 9 0.0 0.65084 3    X   sC7   sN3     X     9    0.65084   0.486     3
X C8 O3 X 9 0.0 0.69873 3    X   sC8   sO3     X     9    0.69873   0.522     3
X C8 OH X 9 0.0 0.69873 3    X   sC8   sOH     X     9    0.69873   0.522     3
X C9 S X 9 0.0 1.39327 3    X   sC9    sS     X     9    1.39327   1.041     3
X CA CA X 9 180.0 15.16700 2    X   sCA   sCA     X     9    15.16700  11.327    2
X CA CB X 9 180.0 14.64400 2    X   sCA   sCB     X     9    14.64400  10.937    2
X CA CM X 9 180.0 10.66920 2    X   sCA   sCM     X     9    10.66920  7.968     2
X CA CN X 9 180.0 15.16700 2    X   sCA   sCN     X     9    15.16700  11.327    2
X CA N2 X 9 180.0 10.04160 2    X   sCA   sN2     X     9    10.04160  7.499     2
X CA NA X 9 180.0 6.27600 2    X   sCA   sNA     X     9    6.27600   4.687     2
X CA NC X 9 180.0 20.08320 2    X   sCA   sNC     X     9    20.08320  14.999    2
X CA OH X 9 180.0 3.76560 2    X   sCA   sOH     X     9    3.76560   2.812     2
X CB CB X 9 180.0 22.80280 2    X   sCB   sCB     X     9    22.80280  17.030    2
X CB CN X 9 180.0 12.55200 2    X   sCB   sCN     X     9    12.55200  9.374     2
X CB NB X 9 180.0 10.66920 2    X   sCB   sNB     X     9    10.66920  7.968     2
X CB NC X 9 180.0 17.36360 2    X   sCB   sNC     X     9    17.36360  12.968    2
X CB N* X 9 180.0 6.90360 2    X   sCB   sN*     X     9    6.90360   5.156     2
X C CA X 9 180.0 15.16700 2    X    sC   sCA     X     9    15.16700  11.327    2
X C CB X 9 180.0 12.55200 2    X    sC   sCB     X     9    12.55200  9.374     2
X C* CB X 9 180.0 7.00820 2    X   sC*   sCB     X     9    7.00820   5.234     2
X CC CV X 9 180.0 21.54760 2    X   sCC   sCV     X     9    21.54760  16.093    2
X CC CW X 9 180.0 22.48900 2    X   sCC   sCW     X     9    22.48900  16.796    2
X C CM X 9 180.0 9.10020 2    X    sC   sCM     X     9    9.10020   6.796     2
X CC NA X 9 180.0 5.85760 2    X   sCC   sNA     X     9    5.85760   4.375     2
X CC NB X 9 180.0 10.04160 2    X   sCC   sNB     X     9    10.04160  7.499     2
X C* CW X 9 180.0 27.30060 2    X   sC*   sCW     X     9    27.30060  20.389    2
X C C X 9 180.0 15.16700 2    X    sC    sC     X     9    15.16700  11.327    2
X CK NB X 9 180.0 41.84000 2    X   sCK   sNB     X     9    41.84000  31.248    2
X CK N* X 9 180.0 7.11280 2    X   sCK   sN*     X     9    7.11280   5.312     2
X CM CM X 9 180.0 27.82360 2    X   sCM   sCM     X     9    27.82360  20.780    2
X CM N* X 9 180.0 7.74040 2    X   sCM   sN*     X     9    7.74040   5.781     2
X CM OS X 9 180.0 4.39320 2    X   sCM   sOS     X     9    4.39320   3.281     2
X C NA X 9 180.0 5.64840 2    X    sC   sNA     X     9    5.64840   4.218     2
X C NC X 9 180.0 16.73600 2    X    sC   sNC     X     9    16.73600  12.499    2
X CN NA X 9 180.0 6.38060 2    X   sCN   sNA     X     9    6.38060   4.765     2
X C N X 9 180.0 10.46000 2    X    sC    sN     X     9    10.46000  7.812     2
X C N* X 9 180.0 6.06680 2    X    sC   sN*     X     9    6.06680   4.531     2
X C OH X 9 180.0 9.62320 2    X    sC   sOH     X     9    9.62320   7.187     2
X C OS X 9 180.0 11.29680 2    X    sC   sOS     X     9    11.29680  8.437     2
X C O X 9 180.0 11.71520 2    X    sC    sO     X     9    11.71520  8.749     2
X C OB X 9 180.0 11.71520 2    X    sC   sOB     X     9    11.71520  8.749     2
X CQ NC X 9 180.0 28.45120 2    X   sCQ   sNC     X     9    28.45120  21.249    2
X CR NA X 9 180.0 9.72780 2    X   sCR   sNA     X     9    9.72780   7.265     2
X CR NB X 9 180.0 20.92000 2    X   sCR   sNB     X     9    20.92000  15.624    2
X CT C8 X 9 0.0 0.64852 3    X   sCT   sC8     X     9    0.64852   0.484     3
X CT C9 X 9 0.0 0.64852 3    X   sCT   sC9     X     9    0.64852   0.484     3
X CT CT X 9 0.0 0.65084 3    X   sCT   sCT     X     9    0.65084   0.486     3
X CT N3 X 9 0.0 0.65084 3    X   sCT   sN3     X     9    0.65084   0.486     3
X CT OH X 9 0.0 0.69733 3    X   sCT   sOH     X     9    0.69733   0.521     3
X CT OS X 9 0.0 1.60387 3    X   sCT   sOS     X     9    1.60387   1.198     3
X CT SH X 9 0.0 1.04600 3    X   sCT   sSH     X     9    1.04600   0.781     3
X CT S X 9 0.0 1.39467 3    X   sCT    sS     X     9    1.39467   1.042     3
X CV NB X 9 180.0 10.04160 2    X   sCV   sNB     X     9    10.04160  7.499     2
X CW NA X 9 180.0 6.27600 2    X   sCW   sNA     X     9    6.27600   4.687     2
X OH P X 9 0.0 1.04600 3    X   sOH    sP     X     9    1.04600   0.781     3
X OS P X 9 0.0 1.04600 3    X   sOS    sP     X     9    1.04600   0.781     3
X C1 N X 9 0.0 0.00000 0    X   sC1    sN     X     9    0.00000   0.000     0
X C C1 X 9 0.0 0.00000 0    X    sC   sC1     X     9    0.00000   0.000     0
X C C9 X 9 0.0 0.00000 0    X    sC   sC9     X     9    0.00000   0.000     0
X C CT X 9 0.0 0.00000 0    X    sC   sCT     X     9    0.00000   0.000     0
X CA CT X 9 0.0 0.00000 0    X   sCA   sCT     X     9    0.00000   0.000     0
X CC CT X 9 0.0 0.00000 0    X   sCC   sCT     X     9    0.00000   0.000     0
X CM CT X 9 0.0 0.00000 0    X   sCM   sCT     X     9    0.00000   0.000     0
X CT N X 9 0.0 0.00000 0    X   sCT    sN     X     9    0.00000   0.000     0
X CT N* X 9 0.0 0.00000 0    X   sCT   sN*     X     9    0.00000   0.000     0
X CT N2 X 9 0.0 0.00000 0    X   sCT   sN2     X     9    0.00000   0.000     0
X C* CT X 9 0.0 0.00000 0    X   sC*   sCT     X     9    0.00000   0.000     0
X C7 N X 9 0.0 0.00000 0    X   sC7    sN     X     9    0.00000   0.000     0
X C C7 X 9 0.0 0.00000 0    X    sC   sC7     X     9    0.00000   0.000     0
X C5 CT X 9 0.0 0.00000 0    X   sC5   sCT     X     9    0.00000   0.000     0
X C6 CT X 9 0.0 0.00000 0    X   sC6   sCT     X     9    0.00000   0.000     0
C C1 N O 4 180.0 4.60240 2   sC   sC1    sN    sO     4    4.60240   3.195     2
C C1 N OB 4 180.0 4.60240 2   sC   sC1    sN   sOB     4    4.60240   3.195     2
C C1 N H 4 180.0 4.60240 2   sC   sC1    sN    sH     4    4.60240   3.195     2
C C1 N HB 4 180.0 4.60240 2   sC   sC1    sN   sHB     4    4.60240   3.195     2
C9 O C OH 4 180.0 43.93200 2  sC9    sO    sC   sOH     4    43.93200  30.501    2
CB CK N* CT 4 180.0 4.18400 2  sCB   sCK   sN*   sCT     4    4.18400   2.905     2
C CM N* CT 4 180.0 4.18400 2   sC   sCM   sN*   sCT     4    4.18400   2.905     2
CT O C OH 4 180.0 43.93200 2  sCT    sO    sC   sOH     4    43.93200  30.501    2
CT CV CC NA 4 180.0 4.60240 2  sCT   sCV   sCC   sNA     4    4.60240   3.195     2
CT CW CC NB 4 180.0 4.60240 2  sCT   sCW   sCC   sNB     4    4.60240   3.195     2
CT CC CW NB 4 180.0 4.60240 2  sCT   sCC   sCW   sNB     4    4.60240   3.195     2
CT CW CC NA 4 180.0 4.60240 2  sCT   sCW   sCC   sNA     4    4.60240   3.195     2
CB CT C* CW 4 180.0 4.60240 2  sCB   sCT   sC*   sCW     4    4.60240   3.195     2
CA CA CA CT 4 180.0 4.60240 2  sCA   sCA   sCA   sCT     4    4.60240   3.195     2
C CM CM CT 4 180.0 4.60240 2   sC   sCM   sCM   sCT     4    4.60240   3.195     2
CM N2 CA NC 4 180.0 4.60240 2  sCM   sN2   sCA   sNC     4    4.60240   3.195     2
CB N2 CA NC 4 180.0 4.60240 2  sCB   sN2   sCA   sNC     4    4.60240   3.195     2
N2 NA CA NC 4 180.0 4.60240 2  sN2   sNA   sCA   sNC     4    4.60240   3.195     2
CA CA C OH 4 180.0 4.60240 2  sCA   sCA    sC   sOH     4    4.60240   3.195     2
CA CA CA OH 4 180.0 4.60240 2  sCA   sCA   sCA   sOH     4    4.60240   3.195     2
H5 O C OH 4 180.0 4.60240 2  sH5    sO    sC   sOH     4    4.60240   3.195     2
H5 O C OS 4 180.0 4.60240 2  sH5    sO    sC   sOS     4    4.60240   3.195     2
CM CT CM HA 4 180.0 4.60240 2  sCM   sCT   sCM   sHA     4    4.60240   3.195     2
Br CA CA CA 4 180.0 4.60240 2  sBr   sCA   sCA   sCA     4    4.60240   3.195     2
CM H4 C O 4 180.0 4.60240 2  sCM   sH4    sC    sO     4    4.60240   3.195     2
C CT N H 4 180.0 4.60240 2   sC   sCT    sN    sH     4    4.60240   3.195     2
C CT N HB 4 180.0 4.60240 2   sC   sCT    sN   sHB     4    4.60240   3.195     2
C CT N O 4 180.0 4.60240 2   sC   sCT    sN    sO     4    4.60240   3.195     2
C C7 N O 4 180.0 4.60240 2   sC   sC7    sN    sO     4    4.60240   3.195     2
C CT N OB 4 180.0 4.60240 2   sC   sCT    sN   sOB     4    4.60240   3.195     2
C C7 N OB 4 180.0 4.60240 2   sC   sC7    sN   sOB     4    4.60240   3.195     2
C C7 N H 4 180.0 4.60240 2   sC   sC7    sN    sH     4    4.60240   3.195     2
C C7 N HB 4 180.0 4.60240 2   sC   sC7    sN   sHB     4    4.60240   3.195     2
C5 CT N O 4 180.0 4.60240 2  sC5   sCT    sN    sO     4    4.60240   3.195     2
C5 CT N OB 4 180.0 4.60240 2  sC5   sCT    sN   sOB     4    4.60240   3.195     2
C5 CT N H 4 180.0 4.60240 2  sC5   sCT    sN    sH     4    4.60240   3.195     2
C5 CT N HB 4 180.0 4.60240 2  sC5   sCT    sN   sHB     4    4.60240   3.195     2
X CT N C1 4 180.0 4.18400 2    X   sCT    sN   sC1     4    4.18400   2.905     2
X CT N C7 4 180.0 4.18400 2    X   sCT    sN   sC7     4    4.18400   2.905     2
X O2 C6 O2 4 180.0 43.93200 2    X   sO2   sC6   sO2     4    43.93200  30.501    2
X O2 C O2 4 180.0 43.93200 2    X   sO2    sC   sO2     4    43.93200  30.501    2
X N2 CA N2 4 180.0 43.93200 2    X   sN2   sCA   sN2     4    43.93200  30.501    2
X CT N CT 4 180.0 4.18400 2    X   sCT    sN   sCT     4    4.18400   2.905     2
X X C O 4 180.0 43.93200 2    X     X    sC    sO     4    43.93200  30.501    2
X X C OB 4 180.0 43.93200 2    X     X    sC   sOB     4    43.93200  30.501    2
X X N H 4 180.0 4.18400 2    X     X    sN    sH     4    4.18400   2.905     2
X X N2 H 4 180.0 4.18400 2    X     X   sN2    sH     4    4.18400   2.905     2
X X NA H 4 180.0 4.18400 2    X     X   sNA    sH     4    4.18400   2.905     2
X X CA HA 4 180.0 4.60240 2    X     X   sCA   sHA     4    4.60240   3.195     2
X X CW H4 4 180.0 4.60240 2    X     X   sCW   sH4     4    4.60240   3.195     2
X X CR H5 4 180.0 4.60240 2    X     X   sCR   sH5     4    4.60240   3.195     2
X X CV H4 4 180.0 4.60240 2    X     X   sCV   sH4     4    4.60240   3.195     2
X X CQ H5 4 180.0 4.60240 2    X     X   sCQ   sH5     4    4.60240   3.195     2
X X CK H5 4 180.0 4.60240 2    X     X   sCK   sH5     4    4.60240   3.195     2
X X CM H4 4 180.0 4.60240 2    X     X   sCM   sH4     4    4.60240   3.195     2
X X CM HA 4 180.0 4.60240 2    X     X   sCM   sHA     4    4.60240   3.195     2
X X CA H4 4 180.0 4.60240 2    X     X   sCA   sH4     4    4.60240   3.195     2
X X CA H5 4 180.0 4.60240 2    X     X   sCA   sH5     4    4.60240   3.195     2
X X C5 O 4 180.0 43.93200 2    X     X   sC5    sO     4    43.93200  30.501    2
C8 CT C N 9 0.0 0.83680 1  sC8   sCT    sC    sN     9    0.83680   0.581     1
C8 CT C N 9 0.0 0.83680 2  sC8   sCT    sC    sN     9    0.83680   0.581     2
C8 CT C N 9 0.0 1.67360 3  sC8   sCT    sC    sN     9    1.67360   1.162     3
C8 CT N C 9 0.0 8.36800 1  sC8   sCT    sN    sC     9    8.36800   5.810     1
C8 CT N C 9 0.0 8.36800 2  sC8   sCT    sN    sC     9    8.36800   5.810     2
C8 CT N C 9 0.0 1.67360 3  sC8   sCT    sN    sC     9    1.67360   1.162     3
C CT C8 O3 9 180.0 4.18400 1   sC   sCT   sC8   sO3     9    4.18400   2.905     1
C CT C8 OH 9 180.0 3.76560 1   sC   sCT   sC8   sOH     9    3.76560   2.614     1
C CT CT C4 9 0.0 2.39074 1   sC   sCT   sCT   sC4     9    2.39074   1.660     1
C CT CT C4 9 180.0 1.49913 2   sC   sCT   sCT   sC4     9    1.49913   1.041     2
C CT CT C4 9 0.0 0.56400 3   sC   sCT   sCT   sC4     9    0.56400   0.392     3
C CT CT C5 9 0.0 0.71421 1   sC   sCT   sCT   sC5     9    0.71421   0.496     1
C CT CT C5 9 180.0 2.49241 2   sC   sCT   sCT   sC5     9    2.49241   1.730     2
C CT CT C5 9 0.0 0.49580 3   sC   sCT   sCT   sC5     9    0.49580   0.344     3
C CT CT C5 9 180.0 1.74556 4   sC   sCT   sCT   sC5     9    1.74556   1.212     4
C CT CT C5 9 0.0 0.43597 5   sC   sCT   sCT   sC5     9    0.43597   0.303     5
C CT CT C5 9 180.0 0.42142 6   sC   sCT   sCT   sC5     9    0.42142   0.293     6
C CT CT C* 9 0.0 1.21336 1   sC   sCT   sCT   sC*     9    1.21336   0.842     1
C CT CT C9 9 0.0 1.25520 1   sC   sCT   sCT   sC9     9    1.25520   0.871     1
C CT CT CA 9 0.0 2.17568 1   sC   sCT   sCT   sCA     9    2.17568   1.511     1
C CT CT CC 9 0.0 2.92880 1   sC   sCT   sCT   sCC     9    2.92880   2.033     1
C CT CT SH 9 180.0 0.66944 1   sC   sCT   sCT   sSH     9    0.66944   0.465     1
Cl CT CT Cl 9 180.0 1.88280 1  sCl   sCT   sCT   sCl     9    1.88280   1.307     1
CM CM C O 9 180.0 9.10020 2  sCM   sCM    sC    sO     9    9.10020   6.318     2
CM CM C O 9 0.0 1.25520 3  sCM   sCM    sC    sO     9    1.25520   0.871     3
C N C1 C 9 0.0 0.35267 1   sC    sN   sC1    sC     9    0.35267   0.245     1
C N C1 C 9 0.0 1.59541 2   sC    sN   sC1    sC     9    1.59541   1.108     2
C N C1 C 9 180.0 0.08381 3   sC    sN   sC1    sC     9    0.08381   0.058     3
C N C1 C 9 0.0 0.32396 4   sC    sN   sC1    sC     9    0.32396   0.225     4
C N C7 C 9 0.0 1.12968 2   sC    sN   sC7    sC     9    1.12968   0.784     2
C N C7 C 9 0.0 1.75728 3   sC    sN   sC7    sC     9    1.75728   1.220     3
C N CT C 9 180.0 0.14226 1   sC    sN   sCT    sC     9    0.14226   0.099     1
C N CT C 9 0.0 1.40164 2   sC    sN   sCT    sC     9    1.40164   0.973     2
C N CT C 9 0.0 2.27610 3   sC    sN   sCT    sC     9    2.27610   1.580     3
C N CT C 9 0.0 0.33472 4   sC    sN   sCT    sC     9    0.33472   0.232     4
CT C7 C N 9 0.0 0.83680 1  sCT   sC7    sC    sN     9    0.83680   0.581     1
CT C7 C N 9 0.0 0.83680 2  sCT   sC7    sC    sN     9    0.83680   0.581     2
CT C7 C N 9 0.0 1.67360 3  sCT   sC7    sC    sN     9    1.67360   1.162     3
CT C7 N C 9 0.0 8.36800 1  sCT   sC7    sN    sC     9    8.36800   5.810     1
CT C7 N C 9 0.0 8.36800 2  sCT   sC7    sN    sC     9    8.36800   5.810     2
CT C7 N C 9 0.0 1.67360 3  sCT   sC7    sN    sC     9    1.67360   1.162     3
CT C9 C O2 9 180.0 2.51040 2  sCT   sC9    sC   sO2     9    2.51040   1.743     2
CT C9 C O 9 180.0 2.51040 2  sCT   sC9    sC    sO     9    2.51040   1.743     2
CT C9 C OB 9 180.0 2.51040 2  sCT   sC9    sC   sOB     9    2.51040   1.743     2
CT CM CM CT 9 180.0 27.82360 2  sCT   sCM   sCM   sCT     9    27.82360  19.317    2
CT CM CM CT 9 180.0 7.94960 1  sCT   sCM   sCM   sCT     9    7.94960   5.519     1
CT CT C4 CT 9 0.0 0.62760 3  sCT   sCT   sC4   sCT     9    0.62760   0.436     3
CT CT C5 O 9 180.0 4.18400 1  sCT   sCT   sC5    sO     9    4.18400   2.905     1
CT CT C6 O2 9 180.0 0.77822 4  sCT   sCT   sC6   sO2     9    0.77822   0.540     4
CT CT C6 O2 9 180.0 1.48114 6  sCT   sCT   sC6   sO2     9    1.48114   1.028     6
CT CT C6 O2 9 180.0 3.65263 2  sCT   sCT   sC6   sO2     9    3.65263   2.536     2
CT CT C* CW 9 0.0 5.02080 1  sCT   sCT   sC*   sCW     9    5.02080   3.486     1
CT CT C N 9 0.0 0.83680 1  sCT   sCT    sC    sN     9    0.83680   0.581     1
CT CT C N 9 0.0 0.83680 2  sCT   sCT    sC    sN     9    0.83680   0.581     2
CT CT C N 9 0.0 1.67360 3  sCT   sCT    sC    sN     9    1.67360   1.162     3
CT CT CT C3 9 0.0 0.62760 3  sCT   sCT   sCT   sC3     9    0.62760   0.436     3
CT CT CT C7 9 0.0 0.75312 3  sCT   sCT   sCT   sC7     9    0.75312   0.523     3
CT CT CT C7 9 180.0 0.83680 1  sCT   sCT   sCT   sC7     9    0.83680   0.581     1
CT CT CT C7 9 180.0 1.04600 2  sCT   sCT   sCT   sC7     9    1.04600   0.726     2
CT CT CT CT 9 0.0 0.62760 3  sCT   sCT   sCT   sCT     9    0.62760   0.436     3
CT CT N C 9 0.0 1.67360 3  sCT   sCT    sN    sC     9    1.67360   1.162     3
CT CT N C 9 0.0 8.36800 1  sCT   sCT    sN    sC     9    8.36800   5.810     1
CT CT N C 9 0.0 8.36800 2  sCT   sCT    sN    sC     9    8.36800   5.810     2
CT CT OS C 9 0.0 1.60247 3  sCT   sCT   sOS    sC     9    1.60247   1.113     3
CT CT OS C 9 180.0 3.34720 1  sCT   sCT   sOS    sC     9    3.34720   2.324     1
CT CT OS CT 9 0.0 1.60247 3  sCT   sCT   sOS   sCT     9    1.60247   1.113     3
CT CT OS CT 9 180.0 0.41840 2  sCT   sCT   sOS   sCT     9    0.41840   0.290     2
CT CT SH HS 9 0.0 0.83680 3  sCT   sCT   sSH   sHS     9    0.83680   0.581     3
CT CT SH HS 9 0.0 2.09200 2  sCT   sCT   sSH   sHS     9    2.09200   1.452     2
CT OS CT N* 9 0.0 1.60247 3  sCT   sOS   sCT   sN*     9    1.60247   1.113     3
CT OS CT N* 9 0.0 2.71960 2  sCT   sOS   sCT   sN*     9    2.71960   1.888     2
CT OS CT OS 9 0.0 0.41840 3  sCT   sOS   sCT   sOS     9    0.41840   0.290     3
CT OS CT OS 9 180.0 3.55640 2  sCT   sOS   sCT   sOS     9    3.55640   2.469     2
CT OS CT OS 9 180.0 5.64840 1  sCT   sOS   sCT   sOS     9    5.64840   3.922     1
CT S S CT 9 0.0 14.64400 2  sCT    sS    sS   sCT     9    14.64400  10.167    2
CT S S CT 9 0.0 2.51040 3  sCT    sS    sS   sCT     9    2.51040   1.743     3
F CT CT F 9 180.0 5.02080 1   sF   sCT   sCT    sF     9    5.02080   3.486     1
H1 C1 C O 9 0.0 3.34720 1  sH1   sC1    sC    sO     9    3.34720   2.324     1
H1 C1 C O 9 180.0 0.33472 3  sH1   sC1    sC    sO     9    0.33472   0.232     3
H1 C7 C O 9 0.0 3.34720 1  sH1   sC7    sC    sO     9    3.34720   2.324     1
H1 C7 C O 9 180.0 0.33472 3  sH1   sC7    sC    sO     9    0.33472   0.232     3
H1 CT C O 9 0.0 3.34720 1  sH1   sCT    sC    sO     9    3.34720   2.324     1
H1 CT C O 9 180.0 0.33472 3  sH1   sCT    sC    sO     9    0.33472   0.232     3
H1 C1 C OB 9 0.0 3.34720 1  sH1   sC1    sC   sOB     9    3.34720   2.324     1
H1 C1 C OB 9 180.0 0.33472 3  sH1   sC1    sC   sOB     9    0.33472   0.232     3
H1 C7 C OB 9 0.0 3.34720 1  sH1   sC7    sC   sOB     9    3.34720   2.324     1
H1 C7 C OB 9 180.0 0.33472 3  sH1   sC7    sC   sOB     9    0.33472   0.232     3
H1 CT C OB 9 0.0 3.34720 1  sH1   sCT    sC   sOB     9    3.34720   2.324     1
H1 CT C OB 9 180.0 0.33472 3  sH1   sCT    sC   sOB     9    0.33472   0.232     3
H1 CT CT Br 9 0.0 2.30120 1  sH1   sCT   sCT   sBr     9    2.30120   1.598     1
H1 CT CT Cl 9 0.0 1.04600 1  sH1   sCT   sCT   sCl     9    1.04600   0.726     1
H1 CT CT F 9 0.0 0.79496 1  sH1   sCT   sCT    sF     9    0.79496   0.552     1
H1 CT CT OH 9 0.0 1.04600 1  sH1   sCT   sCT   sOH     9    1.04600   0.726     1
H1 CT CT OS 9 0.0 1.04600 1  sH1   sCT   sCT   sOS     9    1.04600   0.726     1
HC C3 CT CT 9 0.0 0.66944 3  sHC   sC3   sCT   sCT     9    0.66944   0.465     3
HC C4 CT CT 9 0.0 0.66944 3  sHC   sC4   sCT   sCT     9    0.66944   0.465     3
HC C4 CT HC 9 0.0 0.62760 3  sHC   sC4   sCT   sHC     9    0.62760   0.436     3
HC CT C3 HC 9 0.0 0.62760 3  sHC   sCT   sC3   sHC     9    0.62760   0.436     3
HC CT C4 CT 9 0.0 0.66944 3  sHC   sCT   sC4   sCT     9    0.66944   0.465     3
HC CT C5 O 9 0.0 3.34720 1  sHC   sCT   sC5    sO     9    3.34720   2.324     1
HC CT C5 O 9 180.0 0.33472 3  sHC   sCT   sC5    sO     9    0.33472   0.232     3
HC CT CM CM 9 0.0 4.81160 1  sHC   sCT   sCM   sCM     9    4.81160   3.341     1
HC CT CM CM 9 180.0 1.58992 3  sHC   sCT   sCM   sCM     9    1.58992   1.104     3
HC CT C O 9 0.0 3.34720 1  sHC   sCT    sC    sO     9    3.34720   2.324     1
HC CT C O 9 180.0 0.33472 3  sHC   sCT    sC    sO     9    0.33472   0.232     3
HC CT C OB 9 0.0 3.34720 1  sHC   sCT    sC   sOB     9    3.34720   2.324     1
HC CT C OB 9 180.0 0.33472 3  sHC   sCT    sC   sOB     9    0.33472   0.232     3
HC CT CT Br 9 0.0 2.30120 1  sHC   sCT   sCT   sBr     9    2.30120   1.598     1
HC CT CT C3 9 0.0 0.66944 3  sHC   sCT   sCT   sC3     9    0.66944   0.465     3
HC CT CT C4 9 0.0 0.66944 3  sHC   sCT   sCT   sC4     9    0.66944   0.465     3
HC CT CT C7 9 0.0 0.66944 3  sHC   sCT   sCT   sC7     9    0.66944   0.465     3
HC CT CT Cl 9 0.0 1.04600 1  sHC   sCT   sCT   sCl     9    1.04600   0.726     1
HC CT CT CT 9 0.0 0.66944 3  sHC   sCT   sCT   sCT     9    0.66944   0.465     3
HC CT CT F 9 0.0 0.79496 1  sHC   sCT   sCT    sF     9    0.79496   0.552     1
HC CT CT HC 9 0.0 0.62760 3  sHC   sCT   sCT   sHC     9    0.62760   0.436     3
HC CT CT OH 9 0.0 1.04600 1  sHC   sCT   sCT   sOH     9    1.04600   0.726     1
HC CT CT OS 9 0.0 1.04600 1  sHC   sCT   sCT   sOS     9    1.04600   0.726     1
H N C5 O 9 0.0 8.36800 1   sH    sN   sC5    sO     9    8.36800   5.810     1
H N C5 O 9 180.0 10.46000 2   sH    sN   sC5    sO     9    10.46000  7.262     2
H N C O 9 0.0 8.36800 1   sH    sN    sC    sO     9    8.36800   5.810     1
H N C O 9 180.0 10.46000 2   sH    sN    sC    sO     9    10.46000  7.262     2
HB N C OB 9 0.0 8.36800 1  sHB    sN    sC   sOB     9    8.36800   5.810     1
HB N C OB 9 180.0 10.46000 2  sHB    sN    sC   sOB     9    10.46000  7.262     2
HO O3 C8 CT 9 0.0 0.35982 1  sHO   sO3   sC8   sCT     9    0.35982   0.250     1
HO O3 C8 CT 9 0.0 0.41840 3  sHO   sO3   sC8   sCT     9    0.41840   0.290     3
HO O3 C8 CT 9 180.0 0.68199 2  sHO   sO3   sC8   sCT     9    0.68199   0.473     2
HO O3 C8 H1 9 0.0 0.41840 3  sHO   sO3   sC8   sH1     9    0.41840   0.290     3
HO OH C8 CT 9 0.0 0.25104 2  sHO   sOH   sC8   sCT     9    0.25104   0.174     2
HO OH C8 CT 9 0.0 0.83680 3  sHO   sOH   sC8   sCT     9    0.83680   0.581     3
HO OH C8 CT 9 0.0 3.13800 1  sHO   sOH   sC8   sCT     9    3.13800   2.179     1
HO OH C O 9 0.0 7.94960 1  sHO   sOH    sC    sO     9    7.94960   5.519     1
HO OH C O 9 180.0 9.62320 2  sHO   sOH    sC    sO     9    9.62320   6.681     2
HO OH CT CT 9 0.0 0.66944 3  sHO   sOH   sCT   sCT     9    0.66944   0.465     3
HO OH CT CT 9 0.0 1.04600 1  sHO   sOH   sCT   sCT     9    1.04600   0.726     1
N3 CT CT C3 9 0.0 0.81630 1  sN3   sCT   sCT   sC3     9    0.81630   0.567     1
N3 CT CT C3 9 180.0 3.53925 2  sN3   sCT   sCT   sC3     9    3.53925   2.457     2
N3 CT CT C6 9 180.0 11.02568 1  sN3   sCT   sCT   sC6     9    11.02568  7.655     1
N3 CT CT C6 9 180.0 4.98022 2  sN3   sCT   sCT   sC6     9    4.98022   3.458     2
N3 CT CT C6 9 180.0 0.02845 3  sN3   sCT   sCT   sC6     9    0.02845   0.020     3
N3 CT CT C6 9 0.0 1.76858 4  sN3   sCT   sCT   sC6     9    1.76858   1.228     4
N3 CT CT C6 9 0.0 0.96943 5  sN3   sCT   sCT   sC6     9    0.96943   0.673     5
N3 CT CT C6 9 180.0 0.89009 6  sN3   sCT   sCT   sC6     9    0.89009   0.618     6
N C1 C N 9 180.0 2.69445 1   sN   sC1    sC    sN     9    2.69445   1.871     1
N C1 C N 9 180.0 6.68666 2   sN   sC1    sC    sN     9    6.68666   4.642     2
N C1 C N 9 180.0 1.67111 3   sN   sC1    sC    sN     9    1.67111   1.160     3
N C1 C N 9 0.0 0.31419 4   sN   sC1    sC    sN     9    0.31419   0.218     4
N C5 CT CT 9 180.0 4.37772 1   sN   sC5   sCT   sCT     9    4.37772   3.039     1
N C5 CT CT 9 180.0 0.75730 2   sN   sC5   sCT   sCT     9    0.75730   0.526     2
N C5 CT CT 9 180.0 0.14811 3   sN   sC5   sCT   sCT     9    0.14811   0.103     3
N C5 CT CT 9 0.0 0.41966 4   sN   sC5   sCT   sCT     9    0.41966   0.291     4
N C5 CT CT 9 0.0 0.54308 5   sN   sC5   sCT   sCT     9    0.54308   0.377     5
N C5 CT CT 9 180.0 0.44373 6   sN   sC5   sCT   sCT     9    0.44373   0.308     6
N C7 C N 9 180.0 1.88280 1   sN   sC7    sC    sN     9    1.88280   1.307     1
N C7 C N 9 180.0 6.61072 2   sN   sC7    sC    sN     9    6.61072   4.590     2
N C7 C N 9 180.0 2.30120 3   sN   sC7    sC    sN     9    2.30120   1.598     3
N CT C8 CT 9 0.0 0.25104 1   sN   sCT   sC8   sCT     9    0.25104   0.174     1
N CT C8 CT 9 180.0 2.09200 2   sN   sCT   sC8   sCT     9    2.09200   1.452     2
N CT C8 CT 9 0.0 0.62760 3   sN   sCT   sC8   sCT     9    0.62760   0.436     3
N CT C8 CT 9 180.0 0.27196 4   sN   sCT   sC8   sCT     9    0.27196   0.189     4
N CT C8 O3 9 180.0 0.33472 1   sN   sCT   sC8   sO3     9    0.33472   0.232     1
N CT C8 OH 9 180.0 1.04600 1   sN   sCT   sC8   sOH     9    1.04600   0.726     1
N CT C N 9 360.0 0.82425 1   sN   sCT    sC    sN     9    0.82425   0.572     1
N CT C N 9 180.0 6.04588 2   sN   sCT    sC    sN     9    6.04588   4.198     2
N CT C N 9 180.0 2.00414 3   sN   sCT    sC    sN     9    2.00414   1.391     3
N CT C N 9 360.0 0.07991 4   sN   sCT    sC    sN     9    0.07991   0.055     4
N CT C N 9 360.0 0.01674 5   sN   sCT    sC    sN     9    0.01674   0.012     5
N CT CT C3 9 0.0 0.81630 1   sN   sCT   sCT   sC3     9    0.81630   0.567     1
N CT CT C3 9 180.0 3.53925 2   sN   sCT   sCT   sC3     9    3.53925   2.457     2
N CT CT C5 9 180.0 2.63592 1   sN   sCT   sCT   sC5     9    2.63592   1.830     1
N CT CT C6 9 180.0 12.05410 1   sN   sCT   sCT   sC6     9    12.05410  8.369     1
N CT CT C6 9 180.0 5.06682 2   sN   sCT   sCT   sC6     9    5.06682   3.518     2
N CT CT C6 9 0.0 0.25941 3   sN   sCT   sCT   sC6     9    0.25941   0.180     3
N CT CT C6 9 0.0 1.02508 4   sN   sCT   sCT   sC6     9    1.02508   0.712     4
N CT CT C6 9 0.0 0.54810 5   sN   sCT   sCT   sC6     9    0.54810   0.381     5
N CT CT C6 9 180.0 0.59413 6   sN   sCT   sCT   sC6     9    0.59413   0.412     6
N CT CT C9 9 0.0 0.41840 1   sN   sCT   sCT   sC9     9    0.41840   0.290     1
N CT CT CC 9 180.0 1.67360 1   sN   sCT   sCT   sCC     9    1.67360   1.162     1
N CT CT SH 9 180.0 2.30120 1   sN   sCT   sCT   sSH     9    2.30120   1.598     1
N CT CT SH 9 180.0 2.63592 2   sN   sCT   sCT   sSH     9    2.63592   1.830     2
N CT CT SH 9 180.0 0.25104 3   sN   sCT   sCT   sSH     9    0.25104   0.174     3
N CT CT SH 9 180.0 0.12552 4   sN   sCT   sCT   sSH     9    0.12552   0.087     4
O C OS CT 9 180.0 5.85760 1   sO    sC   sOS   sCT     9    5.85760   4.067     1
O C OS CT 9 180.0 11.29680 2   sO    sC   sOS   sCT     9    11.29680  7.843     2
OH CT CT OH 9 0.0 0.60250 3  sOH   sCT   sCT   sOH     9    0.60250   0.418     3
OH CT CT OH 9 0.0 4.91620 2  sOH   sCT   sCT   sOH     9    4.91620   3.413     2
OH P OS CT 9 0.0 1.04600 3  sOH    sP   sOS   sCT     9    1.04600   0.726     3
OH P OS CT 9 0.0 5.02080 2  sOH    sP   sOS   sCT     9    5.02080   3.486     2
OS CT CT OH 9 0.0 0.60250 3  sOS   sCT   sCT   sOH     9    0.60250   0.418     3
OS CT CT OH 9 0.0 4.91620 2  sOS   sCT   sCT   sOH     9    4.91620   3.413     2
OS CT CT OS 9 0.0 4.91620 2  sOS   sCT   sCT   sOS     9    4.91620   3.413     2
OS CT CT OS 9 0.0 0.60250 3  sOS   sCT   sCT   sOS     9    0.60250   0.418     3
OS CT N* CK 9 0.0 10.46000 1  sOS   sCT   sN*   sCK     9    10.46000  7.262     1
OS CT N* CM 9 0.0 10.46000 1  sOS   sCT   sN*   sCM     9    10.46000  7.262     1
OS P OS CT 9 0.0 5.02080 2  sOS    sP   sOS   sCT     9    5.02080   3.486     2
OS P OS CT 9 0.0 1.04600 3  sOS    sP   sOS   sCT     9    1.04600   0.726     3
N CT CT CA 9 0.0 0.00000 0   sN   sCT   sCT   sCA     9    0.00000   0.000     0
N CT CT C* 9 0.0 0.00000 0   sN   sCT   sCT   sC*     9    0.00000   0.000     0
CT CT C9 S 9 0.0 0.00000 0  sCT   sCT   sC9    sS     9    0.00000   0.000     0
CT CT C9 CT 9 0.0 0.00000 0  sCT   sCT   sC9   sCT     9    0.00000   0.000     0
X C1 N3 X 9 0.0 0.65084 3    X   sC1   sN3     X     9    0.65084   0.452     3
X C5 N X 9 180.0 10.46000 2    X   sC5    sN     X     9    10.46000  7.262     2
X C7 CT X 9 0.0 0.65084 3    X   sC7   sCT     X     9    0.65084   0.452     3
X C7 N3 X 9 0.0 0.65084 3    X   sC7   sN3     X     9    0.65084   0.452     3
X C8 O3 X 9 0.0 0.69873 3    X   sC8   sO3     X     9    0.69873   0.485     3
X C8 OH X 9 0.0 0.69873 3    X   sC8   sOH     X     9    0.69873   0.485     3
X C9 S X 9 0.0 1.39327 3    X   sC9    sS     X     9    1.39327   0.967     3
X CA CA X 9 180.0 15.16700 2    X   sCA   sCA     X     9    15.16700  10.530    2
X CA CB X 9 180.0 14.64400 2    X   sCA   sCB     X     9    14.64400  10.167    2
X CA CM X 9 180.0 10.66920 2    X   sCA   sCM     X     9    10.66920  7.407     2
X CA CN X 9 180.0 15.16700 2    X   sCA   sCN     X     9    15.16700  10.530    2
X CA N2 X 9 180.0 10.04160 2    X   sCA   sN2     X     9    10.04160  6.972     2
X CA NA X 9 180.0 6.27600 2    X   sCA   sNA     X     9    6.27600   4.357     2
X CA NC X 9 180.0 20.08320 2    X   sCA   sNC     X     9    20.08320  13.943    2
X CA OH X 9 180.0 3.76560 2    X   sCA   sOH     X     9    3.76560   2.614     2
X CB CB X 9 180.0 22.80280 2    X   sCB   sCB     X     9    22.80280  15.832    2
X CB CN X 9 180.0 12.55200 2    X   sCB   sCN     X     9    12.55200  8.715     2
X CB NB X 9 180.0 10.66920 2    X   sCB   sNB     X     9    10.66920  7.407     2
X CB NC X 9 180.0 17.36360 2    X   sCB   sNC     X     9    17.36360  12.055    2
X CB N* X 9 180.0 6.90360 2    X   sCB   sN*     X     9    6.90360   4.793     2
X C CA X 9 180.0 15.16700 2    X    sC   sCA     X     9    15.16700  10.530    2
X C CB X 9 180.0 12.55200 2    X    sC   sCB     X     9    12.55200  8.715     2
X C* CB X 9 180.0 7.00820 2    X   sC*   sCB     X     9    7.00820   4.866     2
X CC CV X 9 180.0 21.54760 2    X   sCC   sCV     X     9    21.54760  14.960    2
X CC CW X 9 180.0 22.48900 2    X   sCC   sCW     X     9    22.48900  15.614    2
X C CM X 9 180.0 9.10020 2    X    sC   sCM     X     9    9.10020   6.318     2
X CC NA X 9 180.0 5.85760 2    X   sCC   sNA     X     9    5.85760   4.067     2
X CC NB X 9 180.0 10.04160 2    X   sCC   sNB     X     9    10.04160  6.972     2
X C* CW X 9 180.0 27.30060 2    X   sC*   sCW     X     9    27.30060  18.954    2
X C C X 9 180.0 15.16700 2    X    sC    sC     X     9    15.16700  10.530    2
X CK NB X 9 180.0 41.84000 2    X   sCK   sNB     X     9    41.84000  29.049    2
X CK N* X 9 180.0 7.11280 2    X   sCK   sN*     X     9    7.11280   4.938     2
X CM CM X 9 180.0 27.82360 2    X   sCM   sCM     X     9    27.82360  19.317    2
X CM N* X 9 180.0 7.74040 2    X   sCM   sN*     X     9    7.74040   5.374     2
X CM OS X 9 180.0 4.39320 2    X   sCM   sOS     X     9    4.39320   3.050     2
X C NA X 9 180.0 5.64840 2    X    sC   sNA     X     9    5.64840   3.922     2
X C NC X 9 180.0 16.73600 2    X    sC   sNC     X     9    16.73600  11.620    2
X CN NA X 9 180.0 6.38060 2    X   sCN   sNA     X     9    6.38060   4.430     2
X C N X 9 180.0 10.46000 2    X    sC    sN     X     9    10.46000  7.262     2
X C N* X 9 180.0 6.06680 2    X    sC   sN*     X     9    6.06680   4.212     2
X C OH X 9 180.0 9.62320 2    X    sC   sOH     X     9    9.62320   6.681     2
X C OS X 9 180.0 11.29680 2    X    sC   sOS     X     9    11.29680  7.843     2
X C O X 9 180.0 11.71520 2    X    sC    sO     X     9    11.71520  8.134     2
X C OB X 9 180.0 11.71520 2    X    sC   sOB     X     9    11.71520  8.134     2
X CQ NC X 9 180.0 28.45120 2    X   sCQ   sNC     X     9    28.45120  19.753    2
X CR NA X 9 180.0 9.72780 2    X   sCR   sNA     X     9    9.72780   6.754     2
X CR NB X 9 180.0 20.92000 2    X   sCR   sNB     X     9    20.92000  14.524    2
X CT C8 X 9 0.0 0.64852 3    X   sCT   sC8     X     9    0.64852   0.450     3
X CT C9 X 9 0.0 0.64852 3    X   sCT   sC9     X     9    0.64852   0.450     3
X CT CT X 9 0.0 0.65084 3    X   sCT   sCT     X     9    0.65084   0.452     3
X CT N3 X 9 0.0 0.65084 3    X   sCT   sN3     X     9    0.65084   0.452     3
X CT OH X 9 0.0 0.69733 3    X   sCT   sOH     X     9    0.69733   0.484     3
X CT OS X 9 0.0 1.60387 3    X   sCT   sOS     X     9    1.60387   1.114     3
X CT SH X 9 0.0 1.04600 3    X   sCT   sSH     X     9    1.04600   0.726     3
X CT S X 9 0.0 1.39467 3    X   sCT    sS     X     9    1.39467   0.968     3
X CV NB X 9 180.0 10.04160 2    X   sCV   sNB     X     9    10.04160  6.972     2
X CW NA X 9 180.0 6.27600 2    X   sCW   sNA     X     9    6.27600   4.357     2
X OH P X 9 0.0 1.04600 3    X   sOH    sP     X     9    1.04600   0.726     3
X OS P X 9 0.0 1.04600 3    X   sOS    sP     X     9    1.04600   0.726     3
X C1 N X 9 0.0 0.00000 0    X   sC1    sN     X     9    0.00000   0.000     0
X C C1 X 9 0.0 0.00000 0    X    sC   sC1     X     9    0.00000   0.000     0
X C C9 X 9 0.0 0.00000 0    X    sC   sC9     X     9    0.00000   0.000     0
X C CT X 9 0.0 0.00000 0    X    sC   sCT     X     9    0.00000   0.000     0
X CA CT X 9 0.0 0.00000 0    X   sCA   sCT     X     9    0.00000   0.000     0
X CC CT X 9 0.0 0.00000 0    X   sCC   sCT     X     9    0.00000   0.000     0
X CM CT X 9 0.0 0.00000 0    X   sCM   sCT     X     9    0.00000   0.000     0
X CT N X 9 0.0 0.00000 0    X   sCT    sN     X     9    0.00000   0.000     0
X CT N* X 9 0.0 0.00000 0    X   sCT   sN*     X     9    0.00000   0.000     0
X CT N2 X 9 0.0 0.00000 0    X   sCT   sN2     X     9    0.00000   0.000     0
X C* CT X 9 0.0 0.00000 0    X   sC*   sCT     X     9    0.00000   0.000     0
X C7 N X 9 0.0 0.00000 0    X   sC7    sN     X     9    0.00000   0.000     0
X C C7 X 9 0.0 0.00000 0    X    sC   sC7     X     9    0.00000   0.000     0
X C5 CT X 9 0.0 0.00000 0    X   sC5   sCT     X     9    0.00000   0.000     0
X C6 CT X 9 0.0 0.00000 0    X   sC6   sCT     X     9    0.00000   0.000     0
C C1 N O 4 180.0 4.60240 2   sC   sC1    sN    sO     4    4.60240   2.970     2
C C1 N OB 4 180.0 4.60240 2   sC   sC1    sN   sOB     4    4.60240   2.970     2
C C1 N H 4 180.0 4.60240 2   sC   sC1    sN    sH     4    4.60240   2.970     2
C C1 N HB 4 180.0 4.60240 2   sC   sC1    sN   sHB     4    4.60240   2.970     2
C9 O C OH 4 180.0 43.93200 2  sC9    sO    sC   sOH     4    43.93200  28.355    2
CB CK N* CT 4 180.0 4.18400 2  sCB   sCK   sN*   sCT     4    4.18400   2.700     2
C CM N* CT 4 180.0 4.18400 2   sC   sCM   sN*   sCT     4    4.18400   2.700     2
CT O C OH 4 180.0 43.93200 2  sCT    sO    sC   sOH     4    43.93200  28.355    2
CT CV CC NA 4 180.0 4.60240 2  sCT   sCV   sCC   sNA     4    4.60240   2.970     2
CT CW CC NB 4 180.0 4.60240 2  sCT   sCW   sCC   sNB     4    4.60240   2.970     2
CT CC CW NB 4 180.0 4.60240 2  sCT   sCC   sCW   sNB     4    4.60240   2.970     2
CT CW CC NA 4 180.0 4.60240 2  sCT   sCW   sCC   sNA     4    4.60240   2.970     2
CB CT C* CW 4 180.0 4.60240 2  sCB   sCT   sC*   sCW     4    4.60240   2.970     2
CA CA CA CT 4 180.0 4.60240 2  sCA   sCA   sCA   sCT     4    4.60240   2.970     2
C CM CM CT 4 180.0 4.60240 2   sC   sCM   sCM   sCT     4    4.60240   2.970     2
CM N2 CA NC 4 180.0 4.60240 2  sCM   sN2   sCA   sNC     4    4.60240   2.970     2
CB N2 CA NC 4 180.0 4.60240 2  sCB   sN2   sCA   sNC     4    4.60240   2.970     2
N2 NA CA NC 4 180.0 4.60240 2  sN2   sNA   sCA   sNC     4    4.60240   2.970     2
CA CA C OH 4 180.0 4.60240 2  sCA   sCA    sC   sOH     4    4.60240   2.970     2
CA CA CA OH 4 180.0 4.60240 2  sCA   sCA   sCA   sOH     4    4.60240   2.970     2
H5 O C OH 4 180.0 4.60240 2  sH5    sO    sC   sOH     4    4.60240   2.970     2
H5 O C OS 4 180.0 4.60240 2  sH5    sO    sC   sOS     4    4.60240   2.970     2
CM CT CM HA 4 180.0 4.60240 2  sCM   sCT   sCM   sHA     4    4.60240   2.970     2
Br CA CA CA 4 180.0 4.60240 2  sBr   sCA   sCA   sCA     4    4.60240   2.970     2
CM H4 C O 4 180.0 4.60240 2  sCM   sH4    sC    sO     4    4.60240   2.970     2
C CT N H 4 180.0 4.60240 2   sC   sCT    sN    sH     4    4.60240   2.970     2
C CT N HB 4 180.0 4.60240 2   sC   sCT    sN   sHB     4    4.60240   2.970     2
C CT N O 4 180.0 4.60240 2   sC   sCT    sN    sO     4    4.60240   2.970     2
C C7 N O 4 180.0 4.60240 2   sC   sC7    sN    sO     4    4.60240   2.970     2
C CT N OB 4 180.0 4.60240 2   sC   sCT    sN   sOB     4    4.60240   2.970     2
C C7 N OB 4 180.0 4.60240 2   sC   sC7    sN   sOB     4    4.60240   2.970     2
C C7 N H 4 180.0 4.60240 2   sC   sC7    sN    sH     4    4.60240   2.970     2
C C7 N HB 4 180.0 4.60240 2   sC   sC7    sN   sHB     4    4.60240   2.970     2
C5 CT N O 4 180.0 4.60240 2  sC5   sCT    sN    sO     4    4.60240   2.970     2
C5 CT N OB 4 180.0 4.60240 2  sC5   sCT    sN   sOB     4    4.60240   2.970     2
C5 CT N H 4 180.0 4.60240 2  sC5   sCT    sN    sH     4    4.60240   2.970     2
C5 CT N HB 4 180.0 4.60240 2  sC5   sCT    sN   sHB     4    4.60240   2.970     2
X CT N C1 4 180.0 4.18400 2    X   sCT    sN   sC1     4    4.18400   2.700     2
X CT N C7 4 180.0 4.18400 2    X   sCT    sN   sC7     4    4.18400   2.700     2
X O2 C6 O2 4 180.0 43.93200 2    X   sO2   sC6   sO2     4    43.93200  28.355    2
X O2 C O2 4 180.0 43.93200 2    X   sO2    sC   sO2     4    43.93200  28.355    2
X N2 CA N2 4 180.0 43.93200 2    X   sN2   sCA   sN2     4    43.93200  28.355    2
X CT N CT 4 180.0 4.18400 2    X   sCT    sN   sCT     4    4.18400   2.700     2
X X C O 4 180.0 43.93200 2    X     X    sC    sO     4    43.93200  28.355    2
X X C OB 4 180.0 43.93200 2    X     X    sC   sOB     4    43.93200  28.355    2
X X N H 4 180.0 4.18400 2    X     X    sN    sH     4    4.18400   2.700     2
X X N2 H 4 180.0 4.18400 2    X     X   sN2    sH     4    4.18400   2.700     2
X X NA H 4 180.0 4.18400 2    X     X   sNA    sH     4    4.18400   2.700     2
X X CA HA 4 180.0 4.60240 2    X     X   sCA   sHA     4    4.60240   2.970     2
X X CW H4 4 180.0 4.60240 2    X     X   sCW   sH4     4    4.60240   2.970     2
X X CR H5 4 180.0 4.60240 2    X     X   sCR   sH5     4    4.60240   2.970     2
X X CV H4 4 180.0 4.60240 2    X     X   sCV   sH4     4    4.60240   2.970     2
X X CQ H5 4 180.0 4.60240 2    X     X   sCQ   sH5     4    4.60240   2.970     2
X X CK H5 4 180.0 4.60240 2    X     X   sCK   sH5     4    4.60240   2.970     2
X X CM H4 4 180.0 4.60240 2    X     X   sCM   sH4     4    4.60240   2.970     2
X X CM HA 4 180.0 4.60240 2    X     X   sCM   sHA     4    4.60240   2.970     2
X X CA H4 4 180.0 4.60240 2    X     X   sCA   sH4     4    4.60240   2.970     2
X X CA H5 4 180.0 4.60240 2    X     X   sCA   sH5     4    4.60240   2.970     2
X X C5 O 4 180.0 43.93200 2    X     X   sC5    sO     4    43.93200  28.355    2
C8 CT C N 9 0.0 0.83680 1  sC8   sCT    sC    sN     9    0.83680   0.540     1
C8 CT C N 9 0.0 0.83680 2  sC8   sCT    sC    sN     9    0.83680   0.540     2
C8 CT C N 9 0.0 1.67360 3  sC8   sCT    sC    sN     9    1.67360   1.080     3
C8 CT N C 9 0.0 8.36800 1  sC8   sCT    sN    sC     9    8.36800   5.401     1
C8 CT N C 9 0.0 8.36800 2  sC8   sCT    sN    sC     9    8.36800   5.401     2
C8 CT N C 9 0.0 1.67360 3  sC8   sCT    sN    sC     9    1.67360   1.080     3
C CT C8 O3 9 180.0 4.18400 1   sC   sCT   sC8   sO3     9    4.18400   2.700     1
C CT C8 OH 9 180.0 3.76560 1   sC   sCT   sC8   sOH     9    3.76560   2.430     1
C CT CT C4 9 0.0 2.39074 1   sC   sCT   sCT   sC4     9    2.39074   1.543     1
C CT CT C4 9 180.0 1.49913 2   sC   sCT   sCT   sC4     9    1.49913   0.968     2
C CT CT C4 9 0.0 0.56400 3   sC   sCT   sCT   sC4     9    0.56400   0.364     3
C CT CT C5 9 0.0 0.71421 1   sC   sCT   sCT   sC5     9    0.71421   0.461     1
C CT CT C5 9 180.0 2.49241 2   sC   sCT   sCT   sC5     9    2.49241   1.609     2
C CT CT C5 9 0.0 0.49580 3   sC   sCT   sCT   sC5     9    0.49580   0.320     3
C CT CT C5 9 180.0 1.74556 4   sC   sCT   sCT   sC5     9    1.74556   1.127     4
C CT CT C5 9 0.0 0.43597 5   sC   sCT   sCT   sC5     9    0.43597   0.281     5
C CT CT C5 9 180.0 0.42142 6   sC   sCT   sCT   sC5     9    0.42142   0.272     6
C CT CT C* 9 0.0 1.21336 1   sC   sCT   sCT   sC*     9    1.21336   0.783     1
C CT CT C9 9 0.0 1.25520 1   sC   sCT   sCT   sC9     9    1.25520   0.810     1
C CT CT CA 9 0.0 2.17568 1   sC   sCT   sCT   sCA     9    2.17568   1.404     1
C CT CT CC 9 0.0 2.92880 1   sC   sCT   sCT   sCC     9    2.92880   1.890     1
C CT CT SH 9 180.0 0.66944 1   sC   sCT   sCT   sSH     9    0.66944   0.432     1
Cl CT CT Cl 9 180.0 1.88280 1  sCl   sCT   sCT   sCl     9    1.88280   1.215     1
CM CM C O 9 180.0 9.10020 2  sCM   sCM    sC    sO     9    9.10020   5.873     2
CM CM C O 9 0.0 1.25520 3  sCM   sCM    sC    sO     9    1.25520   0.810     3
C N C1 C 9 0.0 0.35267 1   sC    sN   sC1    sC     9    0.35267   0.228     1
C N C1 C 9 0.0 1.59541 2   sC    sN   sC1    sC     9    1.59541   1.030     2
C N C1 C 9 180.0 0.08381 3   sC    sN   sC1    sC     9    0.08381   0.054     3
C N C1 C 9 0.0 0.32396 4   sC    sN   sC1    sC     9    0.32396   0.209     4
C N C7 C 9 0.0 1.12968 2   sC    sN   sC7    sC     9    1.12968   0.729     2
C N C7 C 9 0.0 1.75728 3   sC    sN   sC7    sC     9    1.75728   1.134     3
C N CT C 9 180.0 0.14226 1   sC    sN   sCT    sC     9    0.14226   0.092     1
C N CT C 9 0.0 1.40164 2   sC    sN   sCT    sC     9    1.40164   0.905     2
C N CT C 9 0.0 2.27610 3   sC    sN   sCT    sC     9    2.27610   1.469     3
C N CT C 9 0.0 0.33472 4   sC    sN   sCT    sC     9    0.33472   0.216     4
CT C7 C N 9 0.0 0.83680 1  sCT   sC7    sC    sN     9    0.83680   0.540     1
CT C7 C N 9 0.0 0.83680 2  sCT   sC7    sC    sN     9    0.83680   0.540     2
CT C7 C N 9 0.0 1.67360 3  sCT   sC7    sC    sN     9    1.67360   1.080     3
CT C7 N C 9 0.0 8.36800 1  sCT   sC7    sN    sC     9    8.36800   5.401     1
CT C7 N C 9 0.0 8.36800 2  sCT   sC7    sN    sC     9    8.36800   5.401     2
CT C7 N C 9 0.0 1.67360 3  sCT   sC7    sN    sC     9    1.67360   1.080     3
CT C9 C O2 9 180.0 2.51040 2  sCT   sC9    sC   sO2     9    2.51040   1.620     2
CT C9 C O 9 180.0 2.51040 2  sCT   sC9    sC    sO     9    2.51040   1.620     2
CT C9 C OB 9 180.0 2.51040 2  sCT   sC9    sC   sOB     9    2.51040   1.620     2
CT CM CM CT 9 180.0 27.82360 2  sCT   sCM   sCM   sCT     9    27.82360  17.958    2
CT CM CM CT 9 180.0 7.94960 1  sCT   sCM   sCM   sCT     9    7.94960   5.131     1
CT CT C4 CT 9 0.0 0.62760 3  sCT   sCT   sC4   sCT     9    0.62760   0.405     3
CT CT C5 O 9 180.0 4.18400 1  sCT   sCT   sC5    sO     9    4.18400   2.700     1
CT CT C6 O2 9 180.0 0.77822 4  sCT   sCT   sC6   sO2     9    0.77822   0.502     4
CT CT C6 O2 9 180.0 1.48114 6  sCT   sCT   sC6   sO2     9    1.48114   0.956     6
CT CT C6 O2 9 180.0 3.65263 2  sCT   sCT   sC6   sO2     9    3.65263   2.357     2
CT CT C* CW 9 0.0 5.02080 1  sCT   sCT   sC*   sCW     9    5.02080   3.241     1
CT CT C N 9 0.0 0.83680 1  sCT   sCT    sC    sN     9    0.83680   0.540     1
CT CT C N 9 0.0 0.83680 2  sCT   sCT    sC    sN     9    0.83680   0.540     2
CT CT C N 9 0.0 1.67360 3  sCT   sCT    sC    sN     9    1.67360   1.080     3
CT CT CT C3 9 0.0 0.62760 3  sCT   sCT   sCT   sC3     9    0.62760   0.405     3
CT CT CT C7 9 0.0 0.75312 3  sCT   sCT   sCT   sC7     9    0.75312   0.486     3
CT CT CT C7 9 180.0 0.83680 1  sCT   sCT   sCT   sC7     9    0.83680   0.540     1
CT CT CT C7 9 180.0 1.04600 2  sCT   sCT   sCT   sC7     9    1.04600   0.675     2
CT CT CT CT 9 0.0 0.62760 3  sCT   sCT   sCT   sCT     9    0.62760   0.405     3
CT CT N C 9 0.0 1.67360 3  sCT   sCT    sN    sC     9    1.67360   1.080     3
CT CT N C 9 0.0 8.36800 1  sCT   sCT    sN    sC     9    8.36800   5.401     1
CT CT N C 9 0.0 8.36800 2  sCT   sCT    sN    sC     9    8.36800   5.401     2
CT CT OS C 9 0.0 1.60247 3  sCT   sCT   sOS    sC     9    1.60247   1.034     3
CT CT OS C 9 180.0 3.34720 1  sCT   sCT   sOS    sC     9    3.34720   2.160     1
CT CT OS CT 9 0.0 1.60247 3  sCT   sCT   sOS   sCT     9    1.60247   1.034     3
CT CT OS CT 9 180.0 0.41840 2  sCT   sCT   sOS   sCT     9    0.41840   0.270     2
CT CT SH HS 9 0.0 0.83680 3  sCT   sCT   sSH   sHS     9    0.83680   0.540     3
CT CT SH HS 9 0.0 2.09200 2  sCT   sCT   sSH   sHS     9    2.09200   1.350     2
CT OS CT N* 9 0.0 1.60247 3  sCT   sOS   sCT   sN*     9    1.60247   1.034     3
CT OS CT N* 9 0.0 2.71960 2  sCT   sOS   sCT   sN*     9    2.71960   1.755     2
CT OS CT OS 9 0.0 0.41840 3  sCT   sOS   sCT   sOS     9    0.41840   0.270     3
CT OS CT OS 9 180.0 3.55640 2  sCT   sOS   sCT   sOS     9    3.55640   2.295     2
CT OS CT OS 9 180.0 5.64840 1  sCT   sOS   sCT   sOS     9    5.64840   3.646     1
CT S S CT 9 0.0 14.64400 2  sCT    sS    sS   sCT     9    14.64400  9.452     2
CT S S CT 9 0.0 2.51040 3  sCT    sS    sS   sCT     9    2.51040   1.620     3
F CT CT F 9 180.0 5.02080 1   sF   sCT   sCT    sF     9    5.02080   3.241     1
H1 C1 C O 9 0.0 3.34720 1  sH1   sC1    sC    sO     9    3.34720   2.160     1
H1 C1 C O 9 180.0 0.33472 3  sH1   sC1    sC    sO     9    0.33472   0.216     3
H1 C7 C O 9 0.0 3.34720 1  sH1   sC7    sC    sO     9    3.34720   2.160     1
H1 C7 C O 9 180.0 0.33472 3  sH1   sC7    sC    sO     9    0.33472   0.216     3
H1 CT C O 9 0.0 3.34720 1  sH1   sCT    sC    sO     9    3.34720   2.160     1
H1 CT C O 9 180.0 0.33472 3  sH1   sCT    sC    sO     9    0.33472   0.216     3
H1 C1 C OB 9 0.0 3.34720 1  sH1   sC1    sC   sOB     9    3.34720   2.160     1
H1 C1 C OB 9 180.0 0.33472 3  sH1   sC1    sC   sOB     9    0.33472   0.216     3
H1 C7 C OB 9 0.0 3.34720 1  sH1   sC7    sC   sOB     9    3.34720   2.160     1
H1 C7 C OB 9 180.0 0.33472 3  sH1   sC7    sC   sOB     9    0.33472   0.216     3
H1 CT C OB 9 0.0 3.34720 1  sH1   sCT    sC   sOB     9    3.34720   2.160     1
H1 CT C OB 9 180.0 0.33472 3  sH1   sCT    sC   sOB     9    0.33472   0.216     3
H1 CT CT Br 9 0.0 2.30120 1  sH1   sCT   sCT   sBr     9    2.30120   1.485     1
H1 CT CT Cl 9 0.0 1.04600 1  sH1   sCT   sCT   sCl     9    1.04600   0.675     1
H1 CT CT F 9 0.0 0.79496 1  sH1   sCT   sCT    sF     9    0.79496   0.513     1
H1 CT CT OH 9 0.0 1.04600 1  sH1   sCT   sCT   sOH     9    1.04600   0.675     1
H1 CT CT OS 9 0.0 1.04600 1  sH1   sCT   sCT   sOS     9    1.04600   0.675     1
HC C3 CT CT 9 0.0 0.66944 3  sHC   sC3   sCT   sCT     9    0.66944   0.432     3
HC C4 CT CT 9 0.0 0.66944 3  sHC   sC4   sCT   sCT     9    0.66944   0.432     3
HC C4 CT HC 9 0.0 0.62760 3  sHC   sC4   sCT   sHC     9    0.62760   0.405     3
HC CT C3 HC 9 0.0 0.62760 3  sHC   sCT   sC3   sHC     9    0.62760   0.405     3
HC CT C4 CT 9 0.0 0.66944 3  sHC   sCT   sC4   sCT     9    0.66944   0.432     3
HC CT C5 O 9 0.0 3.34720 1  sHC   sCT   sC5    sO     9    3.34720   2.160     1
HC CT C5 O 9 180.0 0.33472 3  sHC   sCT   sC5    sO     9    0.33472   0.216     3
HC CT CM CM 9 0.0 4.81160 1  sHC   sCT   sCM   sCM     9    4.81160   3.106     1
HC CT CM CM 9 180.0 1.58992 3  sHC   sCT   sCM   sCM     9    1.58992   1.026     3
HC CT C O 9 0.0 3.34720 1  sHC   sCT    sC    sO     9    3.34720   2.160     1
HC CT C O 9 180.0 0.33472 3  sHC   sCT    sC    sO     9    0.33472   0.216     3
HC CT C OB 9 0.0 3.34720 1  sHC   sCT    sC   sOB     9    3.34720   2.160     1
HC CT C OB 9 180.0 0.33472 3  sHC   sCT    sC   sOB     9    0.33472   0.216     3
HC CT CT Br 9 0.0 2.30120 1  sHC   sCT   sCT   sBr     9    2.30120   1.485     1
HC CT CT C3 9 0.0 0.66944 3  sHC   sCT   sCT   sC3     9    0.66944   0.432     3
HC CT CT C4 9 0.0 0.66944 3  sHC   sCT   sCT   sC4     9    0.66944   0.432     3
HC CT CT C7 9 0.0 0.66944 3  sHC   sCT   sCT   sC7     9    0.66944   0.432     3
HC CT CT Cl 9 0.0 1.04600 1  sHC   sCT   sCT   sCl     9    1.04600   0.675     1
HC CT CT CT 9 0.0 0.66944 3  sHC   sCT   sCT   sCT     9    0.66944   0.432     3
HC CT CT F 9 0.0 0.79496 1  sHC   sCT   sCT    sF     9    0.79496   0.513     1
HC CT CT HC 9 0.0 0.62760 3  sHC   sCT   sCT   sHC     9    0.62760   0.405     3
HC CT CT OH 9 0.0 1.04600 1  sHC   sCT   sCT   sOH     9    1.04600   0.675     1
HC CT CT OS 9 0.0 1.04600 1  sHC   sCT   sCT   sOS     9    1.04600   0.675     1
H N C5 O 9 0.0 8.36800 1   sH    sN   sC5    sO     9    8.36800   5.401     1
H N C5 O 9 180.0 10.46000 2   sH    sN   sC5    sO     9    10.46000  6.751     2
H N C O 9 0.0 8.36800 1   sH    sN    sC    sO     9    8.36800   5.401     1
H N C O 9 180.0 10.46000 2   sH    sN    sC    sO     9    10.46000  6.751     2
HB N C OB 9 0.0 8.36800 1  sHB    sN    sC   sOB     9    8.36800   5.401     1
HB N C OB 9 180.0 10.46000 2  sHB    sN    sC   sOB     9    10.46000  6.751     2
HO O3 C8 CT 9 0.0 0.35982 1  sHO   sO3   sC8   sCT     9    0.35982   0.232     1
HO O3 C8 CT 9 0.0 0.41840 3  sHO   sO3   sC8   sCT     9    0.41840   0.270     3
HO O3 C8 CT 9 180.0 0.68199 2  sHO   sO3   sC8   sCT     9    0.68199   0.440     2
HO O3 C8 H1 9 0.0 0.41840 3  sHO   sO3   sC8   sH1     9    0.41840   0.270     3
HO OH C8 CT 9 0.0 0.25104 2  sHO   sOH   sC8   sCT     9    0.25104   0.162     2
HO OH C8 CT 9 0.0 0.83680 3  sHO   sOH   sC8   sCT     9    0.83680   0.540     3
HO OH C8 CT 9 0.0 3.13800 1  sHO   sOH   sC8   sCT     9    3.13800   2.025     1
HO OH C O 9 0.0 7.94960 1  sHO   sOH    sC    sO     9    7.94960   5.131     1
HO OH C O 9 180.0 9.62320 2  sHO   sOH    sC    sO     9    9.62320   6.211     2
HO OH CT CT 9 0.0 0.66944 3  sHO   sOH   sCT   sCT     9    0.66944   0.432     3
HO OH CT CT 9 0.0 1.04600 1  sHO   sOH   sCT   sCT     9    1.04600   0.675     1
N3 CT CT C3 9 0.0 0.81630 1  sN3   sCT   sCT   sC3     9    0.81630   0.527     1
N3 CT CT C3 9 180.0 3.53925 2  sN3   sCT   sCT   sC3     9    3.53925   2.284     2
N3 CT CT C6 9 180.0 11.02568 1  sN3   sCT   sCT   sC6     9    11.02568  7.116     1
N3 CT CT C6 9 180.0 4.98022 2  sN3   sCT   sCT   sC6     9    4.98022   3.214     2
N3 CT CT C6 9 180.0 0.02845 3  sN3   sCT   sCT   sC6     9    0.02845   0.018     3
N3 CT CT C6 9 0.0 1.76858 4  sN3   sCT   sCT   sC6     9    1.76858   1.141     4
N3 CT CT C6 9 0.0 0.96943 5  sN3   sCT   sCT   sC6     9    0.96943   0.626     5
N3 CT CT C6 9 180.0 0.89009 6  sN3   sCT   sCT   sC6     9    0.89009   0.574     6
N C1 C N 9 180.0 2.69445 1   sN   sC1    sC    sN     9    2.69445   1.739     1
N C1 C N 9 180.0 6.68666 2   sN   sC1    sC    sN     9    6.68666   4.316     2
N C1 C N 9 180.0 1.67111 3   sN   sC1    sC    sN     9    1.67111   1.079     3
N C1 C N 9 0.0 0.31419 4   sN   sC1    sC    sN     9    0.31419   0.203     4
N C5 CT CT 9 180.0 4.37772 1   sN   sC5   sCT   sCT     9    4.37772   2.825     1
N C5 CT CT 9 180.0 0.75730 2   sN   sC5   sCT   sCT     9    0.75730   0.489     2
N C5 CT CT 9 180.0 0.14811 3   sN   sC5   sCT   sCT     9    0.14811   0.096     3
N C5 CT CT 9 0.0 0.41966 4   sN   sC5   sCT   sCT     9    0.41966   0.271     4
N C5 CT CT 9 0.0 0.54308 5   sN   sC5   sCT   sCT     9    0.54308   0.351     5
N C5 CT CT 9 180.0 0.44373 6   sN   sC5   sCT   sCT     9    0.44373   0.286     6
N C7 C N 9 180.0 1.88280 1   sN   sC7    sC    sN     9    1.88280   1.215     1
N C7 C N 9 180.0 6.61072 2   sN   sC7    sC    sN     9    6.61072   4.267     2
N C7 C N 9 180.0 2.30120 3   sN   sC7    sC    sN     9    2.30120   1.485     3
N CT C8 CT 9 0.0 0.25104 1   sN   sCT   sC8   sCT     9    0.25104   0.162     1
N CT C8 CT 9 180.0 2.09200 2   sN   sCT   sC8   sCT     9    2.09200   1.350     2
N CT C8 CT 9 0.0 0.62760 3   sN   sCT   sC8   sCT     9    0.62760   0.405     3
N CT C8 CT 9 180.0 0.27196 4   sN   sCT   sC8   sCT     9    0.27196   0.176     4
N CT C8 O3 9 180.0 0.33472 1   sN   sCT   sC8   sO3     9    0.33472   0.216     1
N CT C8 OH 9 180.0 1.04600 1   sN   sCT   sC8   sOH     9    1.04600   0.675     1
N CT C N 9 360.0 0.82425 1   sN   sCT    sC    sN     9    0.82425   0.532     1
N CT C N 9 180.0 6.04588 2   sN   sCT    sC    sN     9    6.04588   3.902     2
N CT C N 9 180.0 2.00414 3   sN   sCT    sC    sN     9    2.00414   1.294     3
N CT C N 9 360.0 0.07991 4   sN   sCT    sC    sN     9    0.07991   0.052     4
N CT C N 9 360.0 0.01674 5   sN   sCT    sC    sN     9    0.01674   0.011     5
N CT CT C3 9 0.0 0.81630 1   sN   sCT   sCT   sC3     9    0.81630   0.527     1
N CT CT C3 9 180.0 3.53925 2   sN   sCT   sCT   sC3     9    3.53925   2.284     2
N CT CT C5 9 180.0 2.63592 1   sN   sCT   sCT   sC5     9    2.63592   1.701     1
N CT CT C6 9 180.0 12.05410 1   sN   sCT   sCT   sC6     9    12.05410  7.780     1
N CT CT C6 9 180.0 5.06682 2   sN   sCT   sCT   sC6     9    5.06682   3.270     2
N CT CT C6 9 0.0 0.25941 3   sN   sCT   sCT   sC6     9    0.25941   0.167     3
N CT CT C6 9 0.0 1.02508 4   sN   sCT   sCT   sC6     9    1.02508   0.662     4
N CT CT C6 9 0.0 0.54810 5   sN   sCT   sCT   sC6     9    0.54810   0.354     5
N CT CT C6 9 180.0 0.59413 6   sN   sCT   sCT   sC6     9    0.59413   0.383     6
N CT CT C9 9 0.0 0.41840 1   sN   sCT   sCT   sC9     9    0.41840   0.270     1
N CT CT CC 9 180.0 1.67360 1   sN   sCT   sCT   sCC     9    1.67360   1.080     1
N CT CT SH 9 180.0 2.30120 1   sN   sCT   sCT   sSH     9    2.30120   1.485     1
N CT CT SH 9 180.0 2.63592 2   sN   sCT   sCT   sSH     9    2.63592   1.701     2
N CT CT SH 9 180.0 0.25104 3   sN   sCT   sCT   sSH     9    0.25104   0.162     3
N CT CT SH 9 180.0 0.12552 4   sN   sCT   sCT   sSH     9    0.12552   0.081     4
O C OS CT 9 180.0 5.85760 1   sO    sC   sOS   sCT     9    5.85760   3.781     1
O C OS CT 9 180.0 11.29680 2   sO    sC   sOS   sCT     9    11.29680  7.291     2
OH CT CT OH 9 0.0 0.60250 3  sOH   sCT   sCT   sOH     9    0.60250   0.389     3
OH CT CT OH 9 0.0 4.91620 2  sOH   sCT   sCT   sOH     9    4.91620   3.173     2
OH P OS CT 9 0.0 1.04600 3  sOH    sP   sOS   sCT     9    1.04600   0.675     3
OH P OS CT 9 0.0 5.02080 2  sOH    sP   sOS   sCT     9    5.02080   3.241     2
OS CT CT OH 9 0.0 0.60250 3  sOS   sCT   sCT   sOH     9    0.60250   0.389     3
OS CT CT OH 9 0.0 4.91620 2  sOS   sCT   sCT   sOH     9    4.91620   3.173     2
OS CT CT OS 9 0.0 4.91620 2  sOS   sCT   sCT   sOS     9    4.91620   3.173     2
OS CT CT OS 9 0.0 0.60250 3  sOS   sCT   sCT   sOS     9    0.60250   0.389     3
OS CT N* CK 9 0.0 10.46000 1  sOS   sCT   sN*   sCK     9    10.46000  6.751     1
OS CT N* CM 9 0.0 10.46000 1  sOS   sCT   sN*   sCM     9    10.46000  6.751     1
OS P OS CT 9 0.0 5.02080 2  sOS    sP   sOS   sCT     9    5.02080   3.241     2
OS P OS CT 9 0.0 1.04600 3  sOS    sP   sOS   sCT     9    1.04600   0.675     3
N CT CT CA 9 0.0 0.00000 0   sN   sCT   sCT   sCA     9    0.00000   0.000     0
N CT CT C* 9 0.0 0.00000 0   sN   sCT   sCT   sC*     9    0.00000   0.000     0
CT CT C9 S 9 0.0 0.00000 0  sCT   sCT   sC9    sS     9    0.00000   0.000     0
CT CT C9 CT 9 0.0 0.00000 0  sCT   sCT   sC9   sCT     9    0.00000   0.000     0
X C1 N3 X 9 0.0 0.65084 3    X   sC1   sN3     X     9    0.65084   0.420     3
X C5 N X 9 180.0 10.46000 2    X   sC5    sN     X     9    10.46000  6.751     2
X C7 CT X 9 0.0 0.65084 3    X   sC7   sCT     X     9    0.65084   0.420     3
X C7 N3 X 9 0.0 0.65084 3    X   sC7   sN3     X     9    0.65084   0.420     3
X C8 O3 X 9 0.0 0.69873 3    X   sC8   sO3     X     9    0.69873   0.451     3
X C8 OH X 9 0.0 0.69873 3    X   sC8   sOH     X     9    0.69873   0.451     3
X C9 S X 9 0.0 1.39327 3    X   sC9    sS     X     9    1.39327   0.899     3
X CA CA X 9 180.0 15.16700 2    X   sCA   sCA     X     9    15.16700  9.789     2
X CA CB X 9 180.0 14.64400 2    X   sCA   sCB     X     9    14.64400  9.452     2
X CA CM X 9 180.0 10.66920 2    X   sCA   sCM     X     9    10.66920  6.886     2
X CA CN X 9 180.0 15.16700 2    X   sCA   sCN     X     9    15.16700  9.789     2
X CA N2 X 9 180.0 10.04160 2    X   sCA   sN2     X     9    10.04160  6.481     2
X CA NA X 9 180.0 6.27600 2    X   sCA   sNA     X     9    6.27600   4.051     2
X CA NC X 9 180.0 20.08320 2    X   sCA   sNC     X     9    20.08320  12.962    2
X CA OH X 9 180.0 3.76560 2    X   sCA   sOH     X     9    3.76560   2.430     2
X CB CB X 9 180.0 22.80280 2    X   sCB   sCB     X     9    22.80280  14.717    2
X CB CN X 9 180.0 12.55200 2    X   sCB   sCN     X     9    12.55200  8.101     2
X CB NB X 9 180.0 10.66920 2    X   sCB   sNB     X     9    10.66920  6.886     2
X CB NC X 9 180.0 17.36360 2    X   sCB   sNC     X     9    17.36360  11.207    2
X CB N* X 9 180.0 6.90360 2    X   sCB   sN*     X     9    6.90360   4.456     2
X C CA X 9 180.0 15.16700 2    X    sC   sCA     X     9    15.16700  9.789     2
X C CB X 9 180.0 12.55200 2    X    sC   sCB     X     9    12.55200  8.101     2
X C* CB X 9 180.0 7.00820 2    X   sC*   sCB     X     9    7.00820   4.523     2
X CC CV X 9 180.0 21.54760 2    X   sCC   sCV     X     9    21.54760  13.907    2
X CC CW X 9 180.0 22.48900 2    X   sCC   sCW     X     9    22.48900  14.515    2
X C CM X 9 180.0 9.10020 2    X    sC   sCM     X     9    9.10020   5.873     2
X CC NA X 9 180.0 5.85760 2    X   sCC   sNA     X     9    5.85760   3.781     2
X CC NB X 9 180.0 10.04160 2    X   sCC   sNB     X     9    10.04160  6.481     2
X C* CW X 9 180.0 27.30060 2    X   sC*   sCW     X     9    27.30060  17.620    2
X C C X 9 180.0 15.16700 2    X    sC    sC     X     9    15.16700  9.789     2
X CK NB X 9 180.0 41.84000 2    X   sCK   sNB     X     9    41.84000  27.004    2
X CK N* X 9 180.0 7.11280 2    X   sCK   sN*     X     9    7.11280   4.591     2
X CM CM X 9 180.0 27.82360 2    X   sCM   sCM     X     9    27.82360  17.958    2
X CM N* X 9 180.0 7.74040 2    X   sCM   sN*     X     9    7.74040   4.996     2
X CM OS X 9 180.0 4.39320 2    X   sCM   sOS     X     9    4.39320   2.835     2
X C NA X 9 180.0 5.64840 2    X    sC   sNA     X     9    5.64840   3.646     2
X C NC X 9 180.0 16.73600 2    X    sC   sNC     X     9    16.73600  10.802    2
X CN NA X 9 180.0 6.38060 2    X   sCN   sNA     X     9    6.38060   4.118     2
X C N X 9 180.0 10.46000 2    X    sC    sN     X     9    10.46000  6.751     2
X C N* X 9 180.0 6.06680 2    X    sC   sN*     X     9    6.06680   3.916     2
X C OH X 9 180.0 9.62320 2    X    sC   sOH     X     9    9.62320   6.211     2
X C OS X 9 180.0 11.29680 2    X    sC   sOS     X     9    11.29680  7.291     2
X C O X 9 180.0 11.71520 2    X    sC    sO     X     9    11.71520  7.561     2
X C OB X 9 180.0 11.71520 2    X    sC   sOB     X     9    11.71520  7.561     2
X CQ NC X 9 180.0 28.45120 2    X   sCQ   sNC     X     9    28.45120  18.363    2
X CR NA X 9 180.0 9.72780 2    X   sCR   sNA     X     9    9.72780   6.279     2
X CR NB X 9 180.0 20.92000 2    X   sCR   sNB     X     9    20.92000  13.502    2
X CT C8 X 9 0.0 0.64852 3    X   sCT   sC8     X     9    0.64852   0.419     3
X CT C9 X 9 0.0 0.64852 3    X   sCT   sC9     X     9    0.64852   0.419     3
X CT CT X 9 0.0 0.65084 3    X   sCT   sCT     X     9    0.65084   0.420     3
X CT N3 X 9 0.0 0.65084 3    X   sCT   sN3     X     9    0.65084   0.420     3
X CT OH X 9 0.0 0.69733 3    X   sCT   sOH     X     9    0.69733   0.450     3
X CT OS X 9 0.0 1.60387 3    X   sCT   sOS     X     9    1.60387   1.035     3
X CT SH X 9 0.0 1.04600 3    X   sCT   sSH     X     9    1.04600   0.675     3
X CT S X 9 0.0 1.39467 3    X   sCT    sS     X     9    1.39467   0.900     3
X CV NB X 9 180.0 10.04160 2    X   sCV   sNB     X     9    10.04160  6.481     2
X CW NA X 9 180.0 6.27600 2    X   sCW   sNA     X     9    6.27600   4.051     2
X OH P X 9 0.0 1.04600 3    X   sOH    sP     X     9    1.04600   0.675     3
X OS P X 9 0.0 1.04600 3    X   sOS    sP     X     9    1.04600   0.675     3
X C1 N X 9 0.0 0.00000 0    X   sC1    sN     X     9    0.00000   0.000     0
X C C1 X 9 0.0 0.00000 0    X    sC   sC1     X     9    0.00000   0.000     0
X C C9 X 9 0.0 0.00000 0    X    sC   sC9     X     9    0.00000   0.000     0
X C CT X 9 0.0 0.00000 0    X    sC   sCT     X     9    0.00000   0.000     0
X CA CT X 9 0.0 0.00000 0    X   sCA   sCT     X     9    0.00000   0.000     0
X CC CT X 9 0.0 0.00000 0    X   sCC   sCT     X     9    0.00000   0.000     0
X CM CT X 9 0.0 0.00000 0    X   sCM   sCT     X     9    0.00000   0.000     0
X CT N X 9 0.0 0.00000 0    X   sCT    sN     X     9    0.00000   0.000     0
X CT N* X 9 0.0 0.00000 0    X   sCT   sN*     X     9    0.00000   0.000     0
X CT N2 X 9 0.0 0.00000 0    X   sCT   sN2     X     9    0.00000   0.000     0
X C* CT X 9 0.0 0.00000 0    X   sC*   sCT     X     9    0.00000   0.000     0
X C7 N X 9 0.0 0.00000 0    X   sC7    sN     X     9    0.00000   0.000     0
X C C7 X 9 0.0 0.00000 0    X    sC   sC7     X     9    0.00000   0.000     0
X C5 CT X 9 0.0 0.00000 0    X   sC5   sCT     X     9    0.00000   0.000     0
X C6 CT X 9 0.0 0.00000 0    X   sC6   sCT     X     9    0.00000   0.000     0
C C1 N O 4 180.0 4.60240 2   sC   sC1    sN    sO     4    4.60240   2.761     2
C C1 N OB 4 180.0 4.60240 2   sC   sC1    sN   sOB     4    4.60240   2.761     2
C C1 N H 4 180.0 4.60240 2   sC   sC1    sN    sH     4    4.60240   2.761     2
C C1 N HB 4 180.0 4.60240 2   sC   sC1    sN   sHB     4    4.60240   2.761     2
C9 O C OH 4 180.0 43.93200 2  sC9    sO    sC   sOH     4    43.93200  26.359    2
CB CK N* CT 4 180.0 4.18400 2  sCB   sCK   sN*   sCT     4    4.18400   2.510     2
C CM N* CT 4 180.0 4.18400 2   sC   sCM   sN*   sCT     4    4.18400   2.510     2
CT O C OH 4 180.0 43.93200 2  sCT    sO    sC   sOH     4    43.93200  26.359    2
CT CV CC NA 4 180.0 4.60240 2  sCT   sCV   sCC   sNA     4    4.60240   2.761     2
CT CW CC NB 4 180.0 4.60240 2  sCT   sCW   sCC   sNB     4    4.60240   2.761     2
CT CC CW NB 4 180.0 4.60240 2  sCT   sCC   sCW   sNB     4    4.60240   2.761     2
CT CW CC NA 4 180.0 4.60240 2  sCT   sCW   sCC   sNA     4    4.60240   2.761     2
CB CT C* CW 4 180.0 4.60240 2  sCB   sCT   sC*   sCW     4    4.60240   2.761     2
CA CA CA CT 4 180.0 4.60240 2  sCA   sCA   sCA   sCT     4    4.60240   2.761     2
C CM CM CT 4 180.0 4.60240 2   sC   sCM   sCM   sCT     4    4.60240   2.761     2
CM N2 CA NC 4 180.0 4.60240 2  sCM   sN2   sCA   sNC     4    4.60240   2.761     2
CB N2 CA NC 4 180.0 4.60240 2  sCB   sN2   sCA   sNC     4    4.60240   2.761     2
N2 NA CA NC 4 180.0 4.60240 2  sN2   sNA   sCA   sNC     4    4.60240   2.761     2
CA CA C OH 4 180.0 4.60240 2  sCA   sCA    sC   sOH     4    4.60240   2.761     2
CA CA CA OH 4 180.0 4.60240 2  sCA   sCA   sCA   sOH     4    4.60240   2.761     2
H5 O C OH 4 180.0 4.60240 2  sH5    sO    sC   sOH     4    4.60240   2.761     2
H5 O C OS 4 180.0 4.60240 2  sH5    sO    sC   sOS     4    4.60240   2.761     2
CM CT CM HA 4 180.0 4.60240 2  sCM   sCT   sCM   sHA     4    4.60240   2.761     2
Br CA CA CA 4 180.0 4.60240 2  sBr   sCA   sCA   sCA     4    4.60240   2.761     2
CM H4 C O 4 180.0 4.60240 2  sCM   sH4    sC    sO     4    4.60240   2.761     2
C CT N H 4 180.0 4.60240 2   sC   sCT    sN    sH     4    4.60240   2.761     2
C CT N HB 4 180.0 4.60240 2   sC   sCT    sN   sHB     4    4.60240   2.761     2
C CT N O 4 180.0 4.60240 2   sC   sCT    sN    sO     4    4.60240   2.761     2
C C7 N O 4 180.0 4.60240 2   sC   sC7    sN    sO     4    4.60240   2.761     2
C CT N OB 4 180.0 4.60240 2   sC   sCT    sN   sOB     4    4.60240   2.761     2
C C7 N OB 4 180.0 4.60240 2   sC   sC7    sN   sOB     4    4.60240   2.761     2
C C7 N H 4 180.0 4.60240 2   sC   sC7    sN    sH     4    4.60240   2.761     2
C C7 N HB 4 180.0 4.60240 2   sC   sC7    sN   sHB     4    4.60240   2.761     2
C5 CT N O 4 180.0 4.60240 2  sC5   sCT    sN    sO     4    4.60240   2.761     2
C5 CT N OB 4 180.0 4.60240 2  sC5   sCT    sN   sOB     4    4.60240   2.761     2
C5 CT N H 4 180.0 4.60240 2  sC5   sCT    sN    sH     4    4.60240   2.761     2
C5 CT N HB 4 180.0 4.60240 2  sC5   sCT    sN   sHB     4    4.60240   2.761     2
X CT N C1 4 180.0 4.18400 2    X   sCT    sN   sC1     4    4.18400   2.510     2
X CT N C7 4 180.0 4.18400 2    X   sCT    sN   sC7     4    4.18400   2.510     2
X O2 C6 O2 4 180.0 43.93200 2    X   sO2   sC6   sO2     4    43.93200  26.359    2
X O2 C O2 4 180.0 43.93200 2    X   sO2    sC   sO2     4    43.93200  26.359    2
X N2 CA N2 4 180.0 43.93200 2    X   sN2   sCA   sN2     4    43.93200  26.359    2
X CT N CT 4 180.0 4.18400 2    X   sCT    sN   sCT     4    4.18400   2.510     2
X X C O 4 180.0 43.93200 2    X     X    sC    sO     4    43.93200  26.359    2
X X C OB 4 180.0 43.93200 2    X     X    sC   sOB     4    43.93200  26.359    2
X X N H 4 180.0 4.18400 2    X     X    sN    sH     4    4.18400   2.510     2
X X N2 H 4 180.0 4.18400 2    X     X   sN2    sH     4    4.18400   2.510     2
X X NA H 4 180.0 4.18400 2    X     X   sNA    sH     4    4.18400   2.510     2
X X CA HA 4 180.0 4.60240 2    X     X   sCA   sHA     4    4.60240   2.761     2
X X CW H4 4 180.0 4.60240 2    X     X   sCW   sH4     4    4.60240   2.761     2
X X CR H5 4 180.0 4.60240 2    X     X   sCR   sH5     4    4.60240   2.761     2
X X CV H4 4 180.0 4.60240 2    X     X   sCV   sH4     4    4.60240   2.761     2
X X CQ H5 4 180.0 4.60240 2    X     X   sCQ   sH5     4    4.60240   2.761     2
X X CK H5 4 180.0 4.60240 2    X     X   sCK   sH5     4    4.60240   2.761     2
X X CM H4 4 180.0 4.60240 2    X     X   sCM   sH4     4    4.60240   2.761     2
X X CM HA 4 180.0 4.60240 2    X     X   sCM   sHA     4    4.60240   2.761     2
X X CA H4 4 180.0 4.60240 2    X     X   sCA   sH4     4    4.60240   2.761     2
X X CA H5 4 180.0 4.60240 2    X     X   sCA   sH5     4    4.60240   2.761     2
X X C5 O 4 180.0 43.93200 2    X     X   sC5    sO     4    43.93200  26.359    2
C8 CT C N 9 0.0 0.83680 1  sC8   sCT    sC    sN     9    0.83680   0.502     1
C8 CT C N 9 0.0 0.83680 2  sC8   sCT    sC    sN     9    0.83680   0.502     2
C8 CT C N 9 0.0 1.67360 3  sC8   sCT    sC    sN     9    1.67360   1.004     3
C8 CT N C 9 0.0 8.36800 1  sC8   sCT    sN    sC     9    8.36800   5.021     1
C8 CT N C 9 0.0 8.36800 2  sC8   sCT    sN    sC     9    8.36800   5.021     2
C8 CT N C 9 0.0 1.67360 3  sC8   sCT    sN    sC     9    1.67360   1.004     3
C CT C8 O3 9 180.0 4.18400 1   sC   sCT   sC8   sO3     9    4.18400   2.510     1
C CT C8 OH 9 180.0 3.76560 1   sC   sCT   sC8   sOH     9    3.76560   2.259     1
C CT CT C4 9 0.0 2.39074 1   sC   sCT   sCT   sC4     9    2.39074   1.434     1
C CT CT C4 9 180.0 1.49913 2   sC   sCT   sCT   sC4     9    1.49913   0.899     2
C CT CT C4 9 0.0 0.56400 3   sC   sCT   sCT   sC4     9    0.56400   0.338     3
C CT CT C5 9 0.0 0.71421 1   sC   sCT   sCT   sC5     9    0.71421   0.429     1
C CT CT C5 9 180.0 2.49241 2   sC   sCT   sCT   sC5     9    2.49241   1.495     2
C CT CT C5 9 0.0 0.49580 3   sC   sCT   sCT   sC5     9    0.49580   0.297     3
C CT CT C5 9 180.0 1.74556 4   sC   sCT   sCT   sC5     9    1.74556   1.047     4
C CT CT C5 9 0.0 0.43597 5   sC   sCT   sCT   sC5     9    0.43597   0.262     5
C CT CT C5 9 180.0 0.42142 6   sC   sCT   sCT   sC5     9    0.42142   0.253     6
C CT CT C* 9 0.0 1.21336 1   sC   sCT   sCT   sC*     9    1.21336   0.728     1
C CT CT C9 9 0.0 1.25520 1   sC   sCT   sCT   sC9     9    1.25520   0.753     1
C CT CT CA 9 0.0 2.17568 1   sC   sCT   sCT   sCA     9    2.17568   1.305     1
C CT CT CC 9 0.0 2.92880 1   sC   sCT   sCT   sCC     9    2.92880   1.757     1
C CT CT SH 9 180.0 0.66944 1   sC   sCT   sCT   sSH     9    0.66944   0.402     1
Cl CT CT Cl 9 180.0 1.88280 1  sCl   sCT   sCT   sCl     9    1.88280   1.130     1
CM CM C O 9 180.0 9.10020 2  sCM   sCM    sC    sO     9    9.10020   5.460     2
CM CM C O 9 0.0 1.25520 3  sCM   sCM    sC    sO     9    1.25520   0.753     3
C N C1 C 9 0.0 0.35267 1   sC    sN   sC1    sC     9    0.35267   0.212     1
C N C1 C 9 0.0 1.59541 2   sC    sN   sC1    sC     9    1.59541   0.957     2
C N C1 C 9 180.0 0.08381 3   sC    sN   sC1    sC     9    0.08381   0.050     3
C N C1 C 9 0.0 0.32396 4   sC    sN   sC1    sC     9    0.32396   0.194     4
C N C7 C 9 0.0 1.12968 2   sC    sN   sC7    sC     9    1.12968   0.678     2
C N C7 C 9 0.0 1.75728 3   sC    sN   sC7    sC     9    1.75728   1.054     3
C N CT C 9 180.0 0.14226 1   sC    sN   sCT    sC     9    0.14226   0.085     1
C N CT C 9 0.0 1.40164 2   sC    sN   sCT    sC     9    1.40164   0.841     2
C N CT C 9 0.0 2.27610 3   sC    sN   sCT    sC     9    2.27610   1.366     3
C N CT C 9 0.0 0.33472 4   sC    sN   sCT    sC     9    0.33472   0.201     4
CT C7 C N 9 0.0 0.83680 1  sCT   sC7    sC    sN     9    0.83680   0.502     1
CT C7 C N 9 0.0 0.83680 2  sCT   sC7    sC    sN     9    0.83680   0.502     2
CT C7 C N 9 0.0 1.67360 3  sCT   sC7    sC    sN     9    1.67360   1.004     3
CT C7 N C 9 0.0 8.36800 1  sCT   sC7    sN    sC     9    8.36800   5.021     1
CT C7 N C 9 0.0 8.36800 2  sCT   sC7    sN    sC     9    8.36800   5.021     2
CT C7 N C 9 0.0 1.67360 3  sCT   sC7    sN    sC     9    1.67360   1.004     3
CT C9 C O2 9 180.0 2.51040 2  sCT   sC9    sC   sO2     9    2.51040   1.506     2
CT C9 C O 9 180.0 2.51040 2  sCT   sC9    sC    sO     9    2.51040   1.506     2
CT C9 C OB 9 180.0 2.51040 2  sCT   sC9    sC   sOB     9    2.51040   1.506     2
CT CM CM CT 9 180.0 27.82360 2  sCT   sCM   sCM   sCT     9    27.82360  16.694    2
CT CM CM CT 9 180.0 7.94960 1  sCT   sCM   sCM   sCT     9    7.94960   4.770     1
CT CT C4 CT 9 0.0 0.62760 3  sCT   sCT   sC4   sCT     9    0.62760   0.377     3
CT CT C5 O 9 180.0 4.18400 1  sCT   sCT   sC5    sO     9    4.18400   2.510     1
CT CT C6 O2 9 180.0 0.77822 4  sCT   sCT   sC6   sO2     9    0.77822   0.467     4
CT CT C6 O2 9 180.0 1.48114 6  sCT   sCT   sC6   sO2     9    1.48114   0.889     6
CT CT C6 O2 9 180.0 3.65263 2  sCT   sCT   sC6   sO2     9    3.65263   2.192     2
CT CT C* CW 9 0.0 5.02080 1  sCT   sCT   sC*   sCW     9    5.02080   3.012     1
CT CT C N 9 0.0 0.83680 1  sCT   sCT    sC    sN     9    0.83680   0.502     1
CT CT C N 9 0.0 0.83680 2  sCT   sCT    sC    sN     9    0.83680   0.502     2
CT CT C N 9 0.0 1.67360 3  sCT   sCT    sC    sN     9    1.67360   1.004     3
CT CT CT C3 9 0.0 0.62760 3  sCT   sCT   sCT   sC3     9    0.62760   0.377     3
CT CT CT C7 9 0.0 0.75312 3  sCT   sCT   sCT   sC7     9    0.75312   0.452     3
CT CT CT C7 9 180.0 0.83680 1  sCT   sCT   sCT   sC7     9    0.83680   0.502     1
CT CT CT C7 9 180.0 1.04600 2  sCT   sCT   sCT   sC7     9    1.04600   0.628     2
CT CT CT CT 9 0.0 0.62760 3  sCT   sCT   sCT   sCT     9    0.62760   0.377     3
CT CT N C 9 0.0 1.67360 3  sCT   sCT    sN    sC     9    1.67360   1.004     3
CT CT N C 9 0.0 8.36800 1  sCT   sCT    sN    sC     9    8.36800   5.021     1
CT CT N C 9 0.0 8.36800 2  sCT   sCT    sN    sC     9    8.36800   5.021     2
CT CT OS C 9 0.0 1.60247 3  sCT   sCT   sOS    sC     9    1.60247   0.961     3
CT CT OS C 9 180.0 3.34720 1  sCT   sCT   sOS    sC     9    3.34720   2.008     1
CT CT OS CT 9 0.0 1.60247 3  sCT   sCT   sOS   sCT     9    1.60247   0.961     3
CT CT OS CT 9 180.0 0.41840 2  sCT   sCT   sOS   sCT     9    0.41840   0.251     2
CT CT SH HS 9 0.0 0.83680 3  sCT   sCT   sSH   sHS     9    0.83680   0.502     3
CT CT SH HS 9 0.0 2.09200 2  sCT   sCT   sSH   sHS     9    2.09200   1.255     2
CT OS CT N* 9 0.0 1.60247 3  sCT   sOS   sCT   sN*     9    1.60247   0.961     3
CT OS CT N* 9 0.0 2.71960 2  sCT   sOS   sCT   sN*     9    2.71960   1.632     2
CT OS CT OS 9 0.0 0.41840 3  sCT   sOS   sCT   sOS     9    0.41840   0.251     3
CT OS CT OS 9 180.0 3.55640 2  sCT   sOS   sCT   sOS     9    3.55640   2.134     2
CT OS CT OS 9 180.0 5.64840 1  sCT   sOS   sCT   sOS     9    5.64840   3.389     1
CT S S CT 9 0.0 14.64400 2  sCT    sS    sS   sCT     9    14.64400  8.786     2
CT S S CT 9 0.0 2.51040 3  sCT    sS    sS   sCT     9    2.51040   1.506     3
F CT CT F 9 180.0 5.02080 1   sF   sCT   sCT    sF     9    5.02080   3.012     1
H1 C1 C O 9 0.0 3.34720 1  sH1   sC1    sC    sO     9    3.34720   2.008     1
H1 C1 C O 9 180.0 0.33472 3  sH1   sC1    sC    sO     9    0.33472   0.201     3
H1 C7 C O 9 0.0 3.34720 1  sH1   sC7    sC    sO     9    3.34720   2.008     1
H1 C7 C O 9 180.0 0.33472 3  sH1   sC7    sC    sO     9    0.33472   0.201     3
H1 CT C O 9 0.0 3.34720 1  sH1   sCT    sC    sO     9    3.34720   2.008     1
H1 CT C O 9 180.0 0.33472 3  sH1   sCT    sC    sO     9    0.33472   0.201     3
H1 C1 C OB 9 0.0 3.34720 1  sH1   sC1    sC   sOB     9    3.34720   2.008     1
H1 C1 C OB 9 180.0 0.33472 3  sH1   sC1    sC   sOB     9    0.33472   0.201     3
H1 C7 C OB 9 0.0 3.34720 1  sH1   sC7    sC   sOB     9    3.34720   2.008     1
H1 C7 C OB 9 180.0 0.33472 3  sH1   sC7    sC   sOB     9    0.33472   0.201     3
H1 CT C OB 9 0.0 3.34720 1  sH1   sCT    sC   sOB     9    3.34720   2.008     1
H1 CT C OB 9 180.0 0.33472 3  sH1   sCT    sC   sOB     9    0.33472   0.201     3
H1 CT CT Br 9 0.0 2.30120 1  sH1   sCT   sCT   sBr     9    2.30120   1.381     1
H1 CT CT Cl 9 0.0 1.04600 1  sH1   sCT   sCT   sCl     9    1.04600   0.628     1
H1 CT CT F 9 0.0 0.79496 1  sH1   sCT   sCT    sF     9    0.79496   0.477     1
H1 CT CT OH 9 0.0 1.04600 1  sH1   sCT   sCT   sOH     9    1.04600   0.628     1
H1 CT CT OS 9 0.0 1.04600 1  sH1   sCT   sCT   sOS     9    1.04600   0.628     1
HC C3 CT CT 9 0.0 0.66944 3  sHC   sC3   sCT   sCT     9    0.66944   0.402     3
HC C4 CT CT 9 0.0 0.66944 3  sHC   sC4   sCT   sCT     9    0.66944   0.402     3
HC C4 CT HC 9 0.0 0.62760 3  sHC   sC4   sCT   sHC     9    0.62760   0.377     3
HC CT C3 HC 9 0.0 0.62760 3  sHC   sCT   sC3   sHC     9    0.62760   0.377     3
HC CT C4 CT 9 0.0 0.66944 3  sHC   sCT   sC4   sCT     9    0.66944   0.402     3
HC CT C5 O 9 0.0 3.34720 1  sHC   sCT   sC5    sO     9    3.34720   2.008     1
HC CT C5 O 9 180.0 0.33472 3  sHC   sCT   sC5    sO     9    0.33472   0.201     3
HC CT CM CM 9 0.0 4.81160 1  sHC   sCT   sCM   sCM     9    4.81160   2.887     1
HC CT CM CM 9 180.0 1.58992 3  sHC   sCT   sCM   sCM     9    1.58992   0.954     3
HC CT C O 9 0.0 3.34720 1  sHC   sCT    sC    sO     9    3.34720   2.008     1
HC CT C O 9 180.0 0.33472 3  sHC   sCT    sC    sO     9    0.33472   0.201     3
HC CT C OB 9 0.0 3.34720 1  sHC   sCT    sC   sOB     9    3.34720   2.008     1
HC CT C OB 9 180.0 0.33472 3  sHC   sCT    sC   sOB     9    0.33472   0.201     3
HC CT CT Br 9 0.0 2.30120 1  sHC   sCT   sCT   sBr     9    2.30120   1.381     1
HC CT CT C3 9 0.0 0.66944 3  sHC   sCT   sCT   sC3     9    0.66944   0.402     3
HC CT CT C4 9 0.0 0.66944 3  sHC   sCT   sCT   sC4     9    0.66944   0.402     3
HC CT CT C7 9 0.0 0.66944 3  sHC   sCT   sCT   sC7     9    0.66944   0.402     3
HC CT CT Cl 9 0.0 1.04600 1  sHC   sCT   sCT   sCl     9    1.04600   0.628     1
HC CT CT CT 9 0.0 0.66944 3  sHC   sCT   sCT   sCT     9    0.66944   0.402     3
HC CT CT F 9 0.0 0.79496 1  sHC   sCT   sCT    sF     9    0.79496   0.477     1
HC CT CT HC 9 0.0 0.62760 3  sHC   sCT   sCT   sHC     9    0.62760   0.377     3
HC CT CT OH 9 0.0 1.04600 1  sHC   sCT   sCT   sOH     9    1.04600   0.628     1
HC CT CT OS 9 0.0 1.04600 1  sHC   sCT   sCT   sOS     9    1.04600   0.628     1
H N C5 O 9 0.0 8.36800 1   sH    sN   sC5    sO     9    8.36800   5.021     1
H N C5 O 9 180.0 10.46000 2   sH    sN   sC5    sO     9    10.46000  6.276     2
H N C O 9 0.0 8.36800 1   sH    sN    sC    sO     9    8.36800   5.021     1
H N C O 9 180.0 10.46000 2   sH    sN    sC    sO     9    10.46000  6.276     2
HB N C OB 9 0.0 8.36800 1  sHB    sN    sC   sOB     9    8.36800   5.021     1
HB N C OB 9 180.0 10.46000 2  sHB    sN    sC   sOB     9    10.46000  6.276     2
HO O3 C8 CT 9 0.0 0.35982 1  sHO   sO3   sC8   sCT     9    0.35982   0.216     1
HO O3 C8 CT 9 0.0 0.41840 3  sHO   sO3   sC8   sCT     9    0.41840   0.251     3
HO O3 C8 CT 9 180.0 0.68199 2  sHO   sO3   sC8   sCT     9    0.68199   0.409     2
HO O3 C8 H1 9 0.0 0.41840 3  sHO   sO3   sC8   sH1     9    0.41840   0.251     3
HO OH C8 CT 9 0.0 0.25104 2  sHO   sOH   sC8   sCT     9    0.25104   0.151     2
HO OH C8 CT 9 0.0 0.83680 3  sHO   sOH   sC8   sCT     9    0.83680   0.502     3
HO OH C8 CT 9 0.0 3.13800 1  sHO   sOH   sC8   sCT     9    3.13800   1.883     1
HO OH C O 9 0.0 7.94960 1  sHO   sOH    sC    sO     9    7.94960   4.770     1
HO OH C O 9 180.0 9.62320 2  sHO   sOH    sC    sO     9    9.62320   5.774     2
HO OH CT CT 9 0.0 0.66944 3  sHO   sOH   sCT   sCT     9    0.66944   0.402     3
HO OH CT CT 9 0.0 1.04600 1  sHO   sOH   sCT   sCT     9    1.04600   0.628     1
N3 CT CT C3 9 0.0 0.81630 1  sN3   sCT   sCT   sC3     9    0.81630   0.490     1
N3 CT CT C3 9 180.0 3.53925 2  sN3   sCT   sCT   sC3     9    3.53925   2.124     2
N3 CT CT C6 9 180.0 11.02568 1  sN3   sCT   sCT   sC6     9    11.02568  6.615     1
N3 CT CT C6 9 180.0 4.98022 2  sN3   sCT   sCT   sC6     9    4.98022   2.988     2
N3 CT CT C6 9 180.0 0.02845 3  sN3   sCT   sCT   sC6     9    0.02845   0.017     3
N3 CT CT C6 9 0.0 1.76858 4  sN3   sCT   sCT   sC6     9    1.76858   1.061     4
N3 CT CT C6 9 0.0 0.96943 5  sN3   sCT   sCT   sC6     9    0.96943   0.582     5
N3 CT CT C6 9 180.0 0.89009 6  sN3   sCT   sCT   sC6     9    0.89009   0.534     6
N C1 C N 9 180.0 2.69445 1   sN   sC1    sC    sN     9    2.69445   1.617     1
N C1 C N 9 180.0 6.68666 2   sN   sC1    sC    sN     9    6.68666   4.012     2
N C1 C N 9 180.0 1.67111 3   sN   sC1    sC    sN     9    1.67111   1.003     3
N C1 C N 9 0.0 0.31419 4   sN   sC1    sC    sN     9    0.31419   0.189     4
N C5 CT CT 9 180.0 4.37772 1   sN   sC5   sCT   sCT     9    4.37772   2.627     1
N C5 CT CT 9 180.0 0.75730 2   sN   sC5   sCT   sCT     9    0.75730   0.454     2
N C5 CT CT 9 180.0 0.14811 3   sN   sC5   sCT   sCT     9    0.14811   0.089     3
N C5 CT CT 9 0.0 0.41966 4   sN   sC5   sCT   sCT     9    0.41966   0.252     4
N C5 CT CT 9 0.0 0.54308 5   sN   sC5   sCT   sCT     9    0.54308   0.326     5
N C5 CT CT 9 180.0 0.44373 6   sN   sC5   sCT   sCT     9    0.44373   0.266     6
N C7 C N 9 180.0 1.88280 1   sN   sC7    sC    sN     9    1.88280   1.130     1
N C7 C N 9 180.0 6.61072 2   sN   sC7    sC    sN     9    6.61072   3.966     2
N C7 C N 9 180.0 2.30120 3   sN   sC7    sC    sN     9    2.30120   1.381     3
N CT C8 CT 9 0.0 0.25104 1   sN   sCT   sC8   sCT     9    0.25104   0.151     1
N CT C8 CT 9 180.0 2.09200 2   sN   sCT   sC8   sCT     9    2.09200   1.255     2
N CT C8 CT 9 0.0 0.62760 3   sN   sCT   sC8   sCT     9    0.62760   0.377     3
N CT C8 CT 9 180.0 0.27196 4   sN   sCT   sC8   sCT     9    0.27196   0.163     4
N CT C8 O3 9 180.0 0.33472 1   sN   sCT   sC8   sO3     9    0.33472   0.201     1
N CT C8 OH 9 180.0 1.04600 1   sN   sCT   sC8   sOH     9    1.04600   0.628     1
N CT C N 9 360.0 0.82425 1   sN   sCT    sC    sN     9    0.82425   0.495     1
N CT C N 9 180.0 6.04588 2   sN   sCT    sC    sN     9    6.04588   3.628     2
N CT C N 9 180.0 2.00414 3   sN   sCT    sC    sN     9    2.00414   1.202     3
N CT C N 9 360.0 0.07991 4   sN   sCT    sC    sN     9    0.07991   0.048     4
N CT C N 9 360.0 0.01674 5   sN   sCT    sC    sN     9    0.01674   0.010     5
N CT CT C3 9 0.0 0.81630 1   sN   sCT   sCT   sC3     9    0.81630   0.490     1
N CT CT C3 9 180.0 3.53925 2   sN   sCT   sCT   sC3     9    3.53925   2.124     2
N CT CT C5 9 180.0 2.63592 1   sN   sCT   sCT   sC5     9    2.63592   1.582     1
N CT CT C6 9 180.0 12.05410 1   sN   sCT   sCT   sC6     9    12.05410  7.232     1
N CT CT C6 9 180.0 5.06682 2   sN   sCT   sCT   sC6     9    5.06682   3.040     2
N CT CT C6 9 0.0 0.25941 3   sN   sCT   sCT   sC6     9    0.25941   0.156     3
N CT CT C6 9 0.0 1.02508 4   sN   sCT   sCT   sC6     9    1.02508   0.615     4
N CT CT C6 9 0.0 0.54810 5   sN   sCT   sCT   sC6     9    0.54810   0.329     5
N CT CT C6 9 180.0 0.59413 6   sN   sCT   sCT   sC6     9    0.59413   0.356     6
N CT CT C9 9 0.0 0.41840 1   sN   sCT   sCT   sC9     9    0.41840   0.251     1
N CT CT CC 9 180.0 1.67360 1   sN   sCT   sCT   sCC     9    1.67360   1.004     1
N CT CT SH 9 180.0 2.30120 1   sN   sCT   sCT   sSH     9    2.30120   1.381     1
N CT CT SH 9 180.0 2.63592 2   sN   sCT   sCT   sSH     9    2.63592   1.582     2
N CT CT SH 9 180.0 0.25104 3   sN   sCT   sCT   sSH     9    0.25104   0.151     3
N CT CT SH 9 180.0 0.12552 4   sN   sCT   sCT   sSH     9    0.12552   0.075     4
O C OS CT 9 180.0 5.85760 1   sO    sC   sOS   sCT     9    5.85760   3.515     1
O C OS CT 9 180.0 11.29680 2   sO    sC   sOS   sCT     9    11.29680  6.778     2
OH CT CT OH 9 0.0 0.60250 3  sOH   sCT   sCT   sOH     9    0.60250   0.361     3
OH CT CT OH 9 0.0 4.91620 2  sOH   sCT   sCT   sOH     9    4.91620   2.950     2
OH P OS CT 9 0.0 1.04600 3  sOH    sP   sOS   sCT     9    1.04600   0.628     3
OH P OS CT 9 0.0 5.02080 2  sOH    sP   sOS   sCT     9    5.02080   3.012     2
OS CT CT OH 9 0.0 0.60250 3  sOS   sCT   sCT   sOH     9    0.60250   0.361     3
OS CT CT OH 9 0.0 4.91620 2  sOS   sCT   sCT   sOH     9    4.91620   2.950     2
OS CT CT OS 9 0.0 4.91620 2  sOS   sCT   sCT   sOS     9    4.91620   2.950     2
OS CT CT OS 9 0.0 0.60250 3  sOS   sCT   sCT   sOS     9    0.60250   0.361     3
OS CT N* CK 9 0.0 10.46000 1  sOS   sCT   sN*   sCK     9    10.46000  6.276     1
OS CT N* CM 9 0.0 10.46000 1  sOS   sCT   sN*   sCM     9    10.46000  6.276     1
OS P OS CT 9 0.0 5.02080 2  sOS    sP   sOS   sCT     9    5.02080   3.012     2
OS P OS CT 9 0.0 1.04600 3  sOS    sP   sOS   sCT     9    1.04600   0.628     3
N CT CT CA 9 0.0 0.00000 0   sN   sCT   sCT   sCA     9    0.00000   0.000     0
N CT CT C* 9 0.0 0.00000 0   sN   sCT   sCT   sC*     9    0.00000   0.000     0
CT CT C9 S 9 0.0 0.00000 0  sCT   sCT   sC9    sS     9    0.00000   0.000     0
CT CT C9 CT 9 0.0 0.00000 0  sCT   sCT   sC9   sCT     9    0.00000   0.000     0
X C1 N3 X 9 0.0 0.65084 3    X   sC1   sN3     X     9    0.65084   0.391     3
X C5 N X 9 180.0 10.46000 2    X   sC5    sN     X     9    10.46000  6.276     2
X C7 CT X 9 0.0 0.65084 3    X   sC7   sCT     X     9    0.65084   0.391     3
X C7 N3 X 9 0.0 0.65084 3    X   sC7   sN3     X     9    0.65084   0.391     3
X C8 O3 X 9 0.0 0.69873 3    X   sC8   sO3     X     9    0.69873   0.419     3
X C8 OH X 9 0.0 0.69873 3    X   sC8   sOH     X     9    0.69873   0.419     3
X C9 S X 9 0.0 1.39327 3    X   sC9    sS     X     9    1.39327   0.836     3
X CA CA X 9 180.0 15.16700 2    X   sCA   sCA     X     9    15.16700  9.100     2
X CA CB X 9 180.0 14.64400 2    X   sCA   sCB     X     9    14.64400  8.786     2
X CA CM X 9 180.0 10.66920 2    X   sCA   sCM     X     9    10.66920  6.402     2
X CA CN X 9 180.0 15.16700 2    X   sCA   sCN     X     9    15.16700  9.100     2
X CA N2 X 9 180.0 10.04160 2    X   sCA   sN2     X     9    10.04160  6.025     2
X CA NA X 9 180.0 6.27600 2    X   sCA   sNA     X     9    6.27600   3.766     2
X CA NC X 9 180.0 20.08320 2    X   sCA   sNC     X     9    20.08320  12.050    2
X CA OH X 9 180.0 3.76560 2    X   sCA   sOH     X     9    3.76560   2.259     2
X CB CB X 9 180.0 22.80280 2    X   sCB   sCB     X     9    22.80280  13.682    2
X CB CN X 9 180.0 12.55200 2    X   sCB   sCN     X     9    12.55200  7.531     2
X CB NB X 9 180.0 10.66920 2    X   sCB   sNB     X     9    10.66920  6.402     2
X CB NC X 9 180.0 17.36360 2    X   sCB   sNC     X     9    17.36360  10.418    2
X CB N* X 9 180.0 6.90360 2    X   sCB   sN*     X     9    6.90360   4.142     2
X C CA X 9 180.0 15.16700 2    X    sC   sCA     X     9    15.16700  9.100     2
X C CB X 9 180.0 12.55200 2    X    sC   sCB     X     9    12.55200  7.531     2
X C* CB X 9 180.0 7.00820 2    X   sC*   sCB     X     9    7.00820   4.205     2
X CC CV X 9 180.0 21.54760 2    X   sCC   sCV     X     9    21.54760  12.929    2
X CC CW X 9 180.0 22.48900 2    X   sCC   sCW     X     9    22.48900  13.493    2
X C CM X 9 180.0 9.10020 2    X    sC   sCM     X     9    9.10020   5.460     2
X CC NA X 9 180.0 5.85760 2    X   sCC   sNA     X     9    5.85760   3.515     2
X CC NB X 9 180.0 10.04160 2    X   sCC   sNB     X     9    10.04160  6.025     2
X C* CW X 9 180.0 27.30060 2    X   sC*   sCW     X     9    27.30060  16.380    2
X C C X 9 180.0 15.16700 2    X    sC    sC     X     9    15.16700  9.100     2
X CK NB X 9 180.0 41.84000 2    X   sCK   sNB     X     9    41.84000  25.104    2
X CK N* X 9 180.0 7.11280 2    X   sCK   sN*     X     9    7.11280   4.268     2
X CM CM X 9 180.0 27.82360 2    X   sCM   sCM     X     9    27.82360  16.694    2
X CM N* X 9 180.0 7.74040 2    X   sCM   sN*     X     9    7.74040   4.644     2
X CM OS X 9 180.0 4.39320 2    X   sCM   sOS     X     9    4.39320   2.636     2
X C NA X 9 180.0 5.64840 2    X    sC   sNA     X     9    5.64840   3.389     2
X C NC X 9 180.0 16.73600 2    X    sC   sNC     X     9    16.73600  10.042    2
X CN NA X 9 180.0 6.38060 2    X   sCN   sNA     X     9    6.38060   3.828     2
X C N X 9 180.0 10.46000 2    X    sC    sN     X     9    10.46000  6.276     2
X C N* X 9 180.0 6.06680 2    X    sC   sN*     X     9    6.06680   3.640     2
X C OH X 9 180.0 9.62320 2    X    sC   sOH     X     9    9.62320   5.774     2
X C OS X 9 180.0 11.29680 2    X    sC   sOS     X     9    11.29680  6.778     2
X C O X 9 180.0 11.71520 2    X    sC    sO     X     9    11.71520  7.029     2
X C OB X 9 180.0 11.71520 2    X    sC   sOB     X     9    11.71520  7.029     2
X CQ NC X 9 180.0 28.45120 2    X   sCQ   sNC     X     9    28.45120  17.071    2
X CR NA X 9 180.0 9.72780 2    X   sCR   sNA     X     9    9.72780   5.837     2
X CR NB X 9 180.0 20.92000 2    X   sCR   sNB     X     9    20.92000  12.552    2
X CT C8 X 9 0.0 0.64852 3    X   sCT   sC8     X     9    0.64852   0.389     3
X CT C9 X 9 0.0 0.64852 3    X   sCT   sC9     X     9    0.64852   0.389     3
X CT CT X 9 0.0 0.65084 3    X   sCT   sCT     X     9    0.65084   0.391     3
X CT N3 X 9 0.0 0.65084 3    X   sCT   sN3     X     9    0.65084   0.391     3
X CT OH X 9 0.0 0.69733 3    X   sCT   sOH     X     9    0.69733   0.418     3
X CT OS X 9 0.0 1.60387 3    X   sCT   sOS     X     9    1.60387   0.962     3
X CT SH X 9 0.0 1.04600 3    X   sCT   sSH     X     9    1.04600   0.628     3
X CT S X 9 0.0 1.39467 3    X   sCT    sS     X     9    1.39467   0.837     3
X CV NB X 9 180.0 10.04160 2    X   sCV   sNB     X     9    10.04160  6.025     2
X CW NA X 9 180.0 6.27600 2    X   sCW   sNA     X     9    6.27600   3.766     2
X OH P X 9 0.0 1.04600 3    X   sOH    sP     X     9    1.04600   0.628     3
X OS P X 9 0.0 1.04600 3    X   sOS    sP     X     9    1.04600   0.628     3
X C1 N X 9 0.0 0.00000 0    X   sC1    sN     X     9    0.00000   0.000     0
X C C1 X 9 0.0 0.00000 0    X    sC   sC1     X     9    0.00000   0.000     0
X C C9 X 9 0.0 0.00000 0    X    sC   sC9     X     9    0.00000   0.000     0
X C CT X 9 0.0 0.00000 0    X    sC   sCT     X     9    0.00000   0.000     0
X CA CT X 9 0.0 0.00000 0    X   sCA   sCT     X     9    0.00000   0.000     0
X CC CT X 9 0.0 0.00000 0    X   sCC   sCT     X     9    0.00000   0.000     0
X CM CT X 9 0.0 0.00000 0    X   sCM   sCT     X     9    0.00000   0.000     0
X CT N X 9 0.0 0.00000 0    X   sCT    sN     X     9    0.00000   0.000     0
X CT N* X 9 0.0 0.00000 0    X   sCT   sN*     X     9    0.00000   0.000     0
X CT N2 X 9 0.0 0.00000 0    X   sCT   sN2     X     9    0.00000   0.000     0
X C* CT X 9 0.0 0.00000 0    X   sC*   sCT     X     9    0.00000   0.000     0
X C7 N X 9 0.0 0.00000 0    X   sC7    sN     X     9    0.00000   0.000     0
X C C7 X 9 0.0 0.00000 0    X    sC   sC7     X     9    0.00000   0.000     0
X C5 CT X 9 0.0 0.00000 0    X   sC5   sCT     X     9    0.00000   0.000     0
X C6 CT X 9 0.0 0.00000 0    X   sC6   sCT     X     9    0.00000   0.000     0

[ moleculetype ]
; Name            nrexcl
Protein_chain_A     3

[ atoms ]
     1        sN3    121   NASP      N      1     0.0606      14.01
     2         sH    121   NASP     H1      2     0.1704       1.01
     3         sH    121   NASP     H2      3     0.1704       1.01
     4         sH    121   NASP     H3      4     0.1704       1.01
     5        sCT    121   NASP     CA      5     0.0226      12.01
     6        sHP    121   NASP     HA      6     0.0884       1.01
     7        sCT    121   NASP     CB      7    -0.0182      12.01
     8        sHC    121   NASP    HB1      8    -0.0131       1.01
     9        sHC    121   NASP    HB2      9    -0.0131       1.01
    10        sC6    121   NASP     CG     10     0.6347      12.01
    11        sO2    121   NASP    OD1     11    -0.6262      16.00
    12        sO2    121   NASP    OD2     12    -0.6262      16.00
    13         sC    121   NASP      C     13     0.4354      12.01
    14        sOB    121   NASP      O     14    -0.4562      16.00
    15         sN    122    ASN      N     15    -0.3220      14.01
    16        sHB    122    ASN      H     16     0.2106       1.01
    17        sCT    122    ASN     CA     17     0.0111      12.01
    18        sH1    122    ASN     HA     18     0.0812       1.01
    19        sCT    122    ASN     CB     19    -0.1581      12.01
    20        sHC    122    ASN    HB1     20     0.0617       1.01
    21        sHC    122    ASN    HB2     21     0.0617       1.01
    22        sC5    122    ASN     CG     22     0.5523      12.01
    23         sO    122    ASN    OD1     23    -0.4594      16.00
    24         sN    122    ASN    ND2     24    -0.7119      14.01
    25         sH    122    ASN   HD21     25     0.3250       1.01
    26         sH    122    ASN   HD22     26     0.3250       1.01
    27         sC    122    ASN      C     27     0.4627      12.01
    28        sOB    122    ASN      O     28    -0.4399      16.00
    29         sN    123    GLU      N     29    -0.3220      14.01
    30        sHB    123    GLU      H     30     0.2106       1.01
    31        sCT    123    GLU     CA     31    -0.1763      12.01
    32        sH1    123    GLU     HA     32     0.1197       1.01
    33        sCT    123    GLU     CB     33     0.0899      12.01
    34        sHC    123    GLU    HB1     34    -0.0048       1.01
    35        sHC    123    GLU    HB2     35    -0.0048       1.01
    36        sC9    123    GLU     CG     36    -0.0634      12.01
    37        sHC    123    GLU    HG1     37    -0.0048       1.01
    38        sHC    123    GLU    HG2     38    -0.0048       1.01
    39         sC    123    GLU     CD     39     0.5644      12.01
    40        sO2    123    GLU    OE1     40    -0.6006      16.00
    41        sO2    123    GLU    OE2     41    -0.6006      16.00
    42         sC    123    GLU      C     42     0.4627      12.01
    43        sOB    123    GLU      O     43    -0.4399      16.00
    44         sN    124    ALA      N     44    -0.3220      14.01
    45        sHB    124    ALA      H     45     0.2106       1.01
    46        sCT    124    ALA     CA     46     0.0261      12.01
    47        sH1    124    ALA     HA     47     0.0637       1.01
    48        sCT    124    ALA     CB     48    -0.1414      12.01
    49        sHC    124    ALA    HB1     49     0.0467       1.01
    50        sHC    124    ALA    HB2     50     0.0467       1.01
    51        sHC    124    ALA    HB3     51     0.0467       1.01
    52         sC    124    ALA      C     52     0.4627      12.01
    53        sOB    124    ALA      O     53    -0.4399      16.00
    54         sN    125    TYR      N     54    -0.3220      14.01
    55        sHB    125    TYR      H     55     0.2106       1.01
    56        sCT    125    TYR     CA     56    -0.0011      12.01
    57        sH1    125    TYR     HA     57     0.0679       1.01
    58        sCT    125    TYR     CB     58    -0.0118      12.01
    59        sHC    125    TYR    HB1     59     0.0229       1.01
    60        sHC    125    TYR    HB2     60     0.0229       1.01
    61        sCA    125    TYR     CG     61    -0.0009      12.01
    62        sCA    125    TYR    CD1     62    -0.1476      12.01
    63        sHA    125    TYR    HD1     63     0.1316       1.01
    64        sCA    125    TYR    CE1     64    -0.1813      12.01
    65        sHA    125    TYR    HE1     65     0.1283       1.01
    66         sC    125    TYR     CZ     66     0.2499      12.01
    67        sOH    125    TYR     OH     67    -0.4321      16.00
    68        sHO    125    TYR     HH     68     0.3092       1.01
    69        sCA    125    TYR    CE2     69    -0.1813      12.01
    70        sHA    125    TYR    HE2     70     0.1283       1.01
    71        sCA    125    TYR    CD2     71    -0.1476      12.01
    72        sHA    125    TYR    HD2     72     0.1316       1.01
    73         sC    125    TYR      C     73     0.4627      12.01
    74        sOB    125    TYR      O     74    -0.4399      16.00
    75         sN    126    GLU      N     75    -0.3220      14.01
    76        sHB    126    GLU      H     76     0.2106       1.01
    77        sCT    126    GLU     CA     77    -0.1763      12.01
    78        sH1    126    GLU     HA     78     0.1197       1.01
    79        sCT    126    GLU     CB     79     0.0899      12.01
    80        sHC    126    GLU    HB1     80    -0.0048       1.01
    81        sHC    126    GLU    HB2     81    -0.0048       1.01
    82        sC9    126    GLU     CG     82    -0.0634      12.01
    83        sHC    126    GLU    HG1     83    -0.0048       1.01
    84        sHC    126    GLU    HG2     84    -0.0048       1.01
    85         sC    126    GLU     CD     85     0.5644      12.01
    86        sO2    126    GLU    OE1     86    -0.6006      16.00
    87        sO2    126    GLU    OE2     87    -0.6006      16.00
    88         sC    126    GLU      C     88     0.4627      12.01
    89        sOB    126    GLU      O     89    -0.4399      16.00
    90         sN    127    MET      N     90    -0.3220      14.01
    91        sHB    127    MET      H     91     0.2106       1.01
    92        sCT    127    MET     CA     92    -0.0184      12.01
    93        sH1    127    MET     HA     93     0.0682       1.01
    94        sCT    127    MET     CB     94     0.0265      12.01
    95        sHC    127    MET    HB1     95     0.0187       1.01
    96        sHC    127    MET    HB2     96     0.0187       1.01
    97        sC9    127    MET     CG     97     0.0014      12.01
    98        sH1    127    MET    HG1     98     0.0341       1.01
    99        sH1    127    MET    HG2     99     0.0341       1.01
   100         sS    127    MET     SD    100    -0.2120      32.06
   101        sCT    127    MET     CE    101    -0.0415      12.01
   102        sH1    127    MET    HE1    102     0.0530       1.01
   103        sH1    127    MET    HE2    103     0.0530       1.01
   104        sH1    127    MET    HE3    104     0.0530       1.01
   105         sC    127    MET      C    105     0.4627      12.01
   106        sOB    127    MET      O    106    -0.4399      16.00
   107         sN    128    PRO      N    107    -0.1974      14.01
   108        sCT    128    PRO     CD    108     0.0149      12.01
   109        sH1    128    PRO    HD1    109     0.0303       1.01
   110        sH1    128    PRO    HD2    110     0.0303       1.01
   111        sCT    128    PRO     CG    111     0.0146      12.01
   112        sHC    128    PRO    HG1    112     0.0165       1.01
   113        sHC    128    PRO    HG2    113     0.0165       1.01
   114        sCT    128    PRO     CB    114    -0.0054      12.01
   115        sHC    128    PRO    HB1    115     0.0196       1.01
   116        sHC    128    PRO    HB2    116     0.0196       1.01
   117        sC7    128    PRO     CA    117    -0.0206      12.01
   118        sH1    128    PRO     HA    118     0.0497       1.01
   119         sC    128    PRO      C    119     0.4567      12.01
   120        sOB    128    PRO      O    120    -0.4452      16.00
   121         sN    129    SER      N    121    -0.3220      14.01
   122        sHB    129    SER      H    122     0.2106       1.01
   123        sCT    129    SER     CA    123    -0.0193      12.01
   124        sH1    129    SER     HA    124     0.0653       1.01
   125        sC8    129    SER     CB    125     0.1640      12.01
   126        sH1    129    SER    HB1    126     0.0273       1.01
   127        sH1    129    SER    HB2    127     0.0273       1.01
   128        sOH    129    SER     OG    128    -0.5071      16.00
   129        sHO    129    SER    HG1    129     0.3311       1.01
   130         sC    129    SER      C    130     0.4627      12.01
   131        sOB    129    SER      O    131    -0.4399      16.00
   132         sN    130    GLU      N    132    -0.3220      14.01
   133        sHB    130    GLU      H    133     0.2106       1.01
   134        sCT    130    GLU     CA    134    -0.1763      12.01
   135        sH1    130    GLU     HA    135     0.1197       1.01
   136        sCT    130    GLU     CB    136     0.0899      12.01
   137        sHC    130    GLU    HB1    137    -0.0048       1.01
   138        sHC    130    GLU    HB2    138    -0.0048       1.01
   139        sC9    130    GLU     CG    139    -0.0634      12.01
   140        sHC    130    GLU    HG1    140    -0.0048       1.01
   141        sHC    130    GLU    HG2    141    -0.0048       1.01
   142         sC    130    GLU     CD    142     0.5644      12.01
   143        sO2    130    GLU    OE1    143    -0.6006      16.00
   144        sO2    130    GLU    OE2    144    -0.6006      16.00
   145         sC    130    GLU      C    145     0.4627      12.01
   146        sOB    130    GLU      O    146    -0.4399      16.00
   147         sN    131    GLU      N    147    -0.3220      14.01
   148        sHB    131    GLU      H    148     0.2106       1.01
   149        sCT    131    GLU     CA    149    -0.1763      12.01
   150        sH1    131    GLU     HA    150     0.1197       1.01
   151        sCT    131    GLU     CB    151     0.0899      12.01
   152        sHC    131    GLU    HB1    152    -0.0048       1.01
   153        sHC    131    GLU    HB2    153    -0.0048       1.01
   154        sC9    131    GLU     CG    154    -0.0634      12.01
   155        sHC    131    GLU    HG1    155    -0.0048       1.01
   156        sHC    131    GLU    HG2    156    -0.0048       1.01
   157         sC    131    GLU     CD    157     0.5644      12.01
   158        sO2    131    GLU    OE1    158    -0.6006      16.00
   159        sO2    131    GLU    OE2    159    -0.6006      16.00
   160         sC    131    GLU      C    160     0.4627      12.01
   161        sOB    131    GLU      O    161    -0.4399      16.00
   162         sN    132    GLY      N    162    -0.3220      14.01
   163        sHB    132    GLY      H    163     0.2106       1.01
   164        sC1    132    GLY     CA    164    -0.0195      12.01
   165        sH1    132    GLY    HA1    165     0.0541       1.01
   166        sH1    132    GLY    HA2    166     0.0541       1.01
   167         sC    132    GLY      C    167     0.4627      12.01
   168        sOB    132    GLY      O    168    -0.4399      16.00
   169         sN    133    TYR      N    169    -0.3220      14.01
   170        sHB    133    TYR      H    170     0.2106       1.01
   171        sCT    133    TYR     CA    171    -0.0011      12.01
   172        sH1    133    TYR     HA    172     0.0679       1.01
   173        sCT    133    TYR     CB    173    -0.0118      12.01
   174        sHC    133    TYR    HB1    174     0.0229       1.01
   175        sHC    133    TYR    HB2    175     0.0229       1.01
   176        sCA    133    TYR     CG    176    -0.0009      12.01
   177        sCA    133    TYR    CD1    177    -0.1476      12.01
   178        sHA    133    TYR    HD1    178     0.1316       1.01
   179        sCA    133    TYR    CE1    179    -0.1813      12.01
   180        sHA    133    TYR    HE1    180     0.1283       1.01
   181         sC    133    TYR     CZ    181     0.2499      12.01
   182        sOH    133    TYR     OH    182    -0.4321      16.00
   183        sHO    133    TYR     HH    183     0.3092       1.01
   184        sCA    133    TYR    CE2    184    -0.1813      12.01
   185        sHA    133    TYR    HE2    185     0.1283       1.01
   186        sCA    133    TYR    CD2    186    -0.1476      12.01
   187        sHA    133    TYR    HD2    187     0.1316       1.01
   188         sC    133    TYR      C    188     0.4627      12.01
   189        sOB    133    TYR      O    189    -0.4399      16.00
   190         sN    134    GLN      N    190    -0.3220      14.01
   191        sHB    134    GLN      H    191     0.2106       1.01
   192        sCT    134    GLN     CA    192    -0.0024      12.01
   193        sH1    134    GLN     HA    193     0.0658       1.01
   194        sCT    134    GLN     CB    194    -0.0028      12.01
   195        sHC    134    GLN    HB1    195     0.0132       1.01
   196        sHC    134    GLN    HB2    196     0.0132       1.01
   197        sC9    134    GLN     CG    197    -0.0500      12.01
   198        sHC    134    GLN    HG1    198     0.0273       1.01
   199        sHC    134    GLN    HG2    199     0.0273       1.01
   200         sC    134    GLN     CD    200     0.5384      12.01
   201         sO    134    GLN    OE1    201    -0.4714      16.00
   202         sN    134    GLN    NE2    202    -0.7287      14.01
   203         sH    134    GLN   HE21    203     0.3293       1.01
   204         sH    134    GLN   HE22    204     0.3293       1.01
   205         sC    134    GLN      C    205     0.4627      12.01
   206        sOB    134    GLN      O    206    -0.4399      16.00
   207         sN    135    ASP      N    207    -0.3220      14.01
   208        sHB    135    ASP      H    208     0.2106       1.01
   209        sCT    135    ASP     CA    209    -0.1739      12.01
   210        sH1    135    ASP     HA    210     0.1132       1.01
   211        sCT    135    ASP     CB    211     0.0028      12.01
   212        sHC    135    ASP    HB1    212    -0.0121       1.01
   213        sHC    135    ASP    HB2    213    -0.0121       1.01
   214        sC6    135    ASP     CG    214     0.5909      12.01
   215        sO2    135    ASP    OD1    215    -0.5974      16.00
   216        sO2    135    ASP    OD2    216    -0.5974      16.00
   217         sC    135    ASP      C    217     0.4627      12.01
   218        sOB    135    ASP      O    218    -0.4399      16.00
   219         sN    136    TYR      N    219    -0.3220      14.01
   220        sHB    136    TYR      H    220     0.2106       1.01
   221        sCT    136    TYR     CA    221    -0.0011      12.01
   222        sH1    136    TYR     HA    222     0.0679       1.01
   223        sCT    136    TYR     CB    223    -0.0118      12.01
   224        sHC    136    TYR    HB1    224     0.0229       1.01
   225        sHC    136    TYR    HB2    225     0.0229       1.01
   226        sCA    136    TYR     CG    226    -0.0009      12.01
   227        sCA    136    TYR    CD1    227    -0.1476      12.01
   228        sHA    136    TYR    HD1    228     0.1316       1.01
   229        sCA    136    TYR    CE1    229    -0.1813      12.01
   230        sHA    136    TYR    HE1    230     0.1283       1.01
   231         sC    136    TYR     CZ    231     0.2499      12.01
   232        sOH    136    TYR     OH    232    -0.4321      16.00
   233        sHO    136    TYR     HH    233     0.3092       1.01
   234        sCA    136    TYR    CE2    234    -0.1813      12.01
   235        sHA    136    TYR    HE2    235     0.1283       1.01
   236        sCA    136    TYR    CD2    236    -0.1476      12.01
   237        sHA    136    TYR    HD2    237     0.1316       1.01
   238         sC    136    TYR      C    238     0.4627      12.01
   239        sOB    136    TYR      O    239    -0.4399      16.00
   240         sN    137    GLU      N    240    -0.3220      14.01
   241        sHB    137    GLU      H    241     0.2106       1.01
   242        sCT    137    GLU     CA    242    -0.1763      12.01
   243        sH1    137    GLU     HA    243     0.1197       1.01
   244        sCT    137    GLU     CB    244     0.0899      12.01
   245        sHC    137    GLU    HB1    245    -0.0048       1.01
   246        sHC    137    GLU    HB2    246    -0.0048       1.01
   247        sC9    137    GLU     CG    247    -0.0634      12.01
   248        sHC    137    GLU    HG1    248    -0.0048       1.01
   249        sHC    137    GLU    HG2    249    -0.0048       1.01
   250         sC    137    GLU     CD    250     0.5644      12.01
   251        sO2    137    GLU    OE1    251    -0.6006      16.00
   252        sO2    137    GLU    OE2    252    -0.6006      16.00
   253         sC    137    GLU      C    253     0.4627      12.01
   254        sOB    137    GLU      O    254    -0.4399      16.00
   255         sN    138    PRO      N    255    -0.1974      14.01
   256        sCT    138    PRO     CD    256     0.0149      12.01
   257        sH1    138    PRO    HD1    257     0.0303       1.01
   258        sH1    138    PRO    HD2    258     0.0303       1.01
   259        sCT    138    PRO     CG    259     0.0146      12.01
   260        sHC    138    PRO    HG1    260     0.0165       1.01
   261        sHC    138    PRO    HG2    261     0.0165       1.01
   262        sCT    138    PRO     CB    262    -0.0054      12.01
   263        sHC    138    PRO    HB1    263     0.0196       1.01
   264        sHC    138    PRO    HB2    264     0.0196       1.01
   265        sC7    138    PRO     CA    265    -0.0206      12.01
   266        sH1    138    PRO     HA    266     0.0497       1.01
   267         sC    138    PRO      C    267     0.4567      12.01
   268        sOB    138    PRO      O    268    -0.4452      16.00
   269         sN    139    GLU      N    269    -0.3220      14.01
   270        sHB    139    GLU      H    270     0.2106       1.01
   271        sCT    139    GLU     CA    271    -0.1763      12.01
   272        sH1    139    GLU     HA    272     0.1197       1.01
   273        sCT    139    GLU     CB    273     0.0899      12.01
   274        sHC    139    GLU    HB1    274    -0.0048       1.01
   275        sHC    139    GLU    HB2    275    -0.0048       1.01
   276        sC9    139    GLU     CG    276    -0.0634      12.01
   277        sHC    139    GLU    HG1    277    -0.0048       1.01
   278        sHC    139    GLU    HG2    278    -0.0048       1.01
   279         sC    139    GLU     CD    279     0.5644      12.01
   280        sO2    139    GLU    OE1    280    -0.6006      16.00
   281        sO2    139    GLU    OE2    281    -0.6006      16.00
   282         sC    139    GLU      C    282     0.4627      12.01
   283        sOB    139    GLU      O    283    -0.4399      16.00
   284         sN    140   CALA      N    284    -0.2960      14.01
   285        sHB    140   CALA      H    285     0.2077       1.01
   286        sCT    140   CALA     CA    286    -0.1353      12.01
   287        sH1    140   CALA     HA    287     0.0826       1.01
   288        sCT    140   CALA     CB    288    -0.1621      12.01
   289        sHC    140   CALA    HB1    289     0.0592       1.01
   290        sHC    140   CALA    HB2    290     0.0592       1.01
   291        sHC    140   CALA    HB3    291     0.0592       1.01
   292         sC    140   CALA      C    292     0.5988      12.01
   293        sO2    140   CALA    OC1    293    -0.6239      16.00
   294        sO2    140   CALA    OC2    294    -0.6239      16.00

[ bonds ]
    1     2     1
    1     3     1
    1     4     1
    1     5     1
    5     6     1
    5     7     1
    5    13     1
    7     8     1
    7     9     1
    7    10     1
   10    11     1
   10    12     1
   13    14     1
   13    15     1
   15    16     1
   15    17     1
   17    18     1
   17    19     1
   17    27     1
   19    20     1
   19    21     1
   19    22     1
   22    23     1
   22    24     1
   24    25     1
   24    26     1
   27    28     1
   27    29     1
   29    30     1
   29    31     1
   31    32     1
   31    33     1
   31    42     1
   33    34     1
   33    35     1
   33    36     1
   36    37     1
   36    38     1
   36    39     1
   39    40     1
   39    41     1
   42    43     1
   42    44     1
   44    45     1
   44    46     1
   46    47     1
   46    48     1
   46    52     1
   48    49     1
   48    50     1
   48    51     1
   52    53     1
   52    54     1
   54    55     1
   54    56     1
   56    57     1
   56    58     1
   56    73     1
   58    59     1
   58    60     1
   58    61     1
   61    62     1
   61    71     1
   62    63     1
   62    64     1
   64    65     1
   64    66     1
   66    67     1
   66    69     1
   67    68     1
   69    70     1
   69    71     1
   71    72     1
   73    74     1
   73    75     1
   75    76     1
   75    77     1
   77    78     1
   77    79     1
   77    88     1
   79    80     1
   79    81     1
   79    82     1
   82    83     1
   82    84     1
   82    85     1
   85    86     1
   85    87     1
   88    89     1
   88    90     1
   90    91     1
   90    92     1
   92    93     1
   92    94     1
   92   105     1
   94    95     1
   94    96     1
   94    97     1
   97    98     1
   97    99     1
   97   100     1
  100   101     1
  101   102     1
  101   103     1
  101   104     1
  105   106     1
  105   107     1
  107   108     1
  107   117     1
  108   109     1
  108   110     1
  108   111     1
  111   112     1
  111   113     1
  111   114     1
  114   115     1
  114   116     1
  114   117     1
  117   118     1
  117   119     1
  119   120     1
  119   121     1
  121   122     1
  121   123     1
  123   124     1
  123   125     1
  123   130     1
  125   126     1
  125   127     1
  125   128     1
  128   129     1
  130   131     1
  130   132     1
  132   133     1
  132   134     1
  134   135     1
  134   136     1
  134   145     1
  136   137     1
  136   138     1
  136   139     1
  139   140     1
  139   141     1
  139   142     1
  142   143     1
  142   144     1
  145   146     1
  145   147     1
  147   148     1
  147   149     1
  149   150     1
  149   151     1
  149   160     1
  151   152     1
  151   153     1
  151   154     1
  154   155     1
  154   156     1
  154   157     1
  157   158     1
  157   159     1
  160   161     1
  160   162     1
  162   163     1
  162   164     1
  164   165     1
  164   166     1
  164   167     1
  167   168     1
  167   169     1
  169   170     1
  169   171     1
  171   172     1
  171   173     1
  171   188     1
  173   174     1
  173   175     1
  173   176     1
  176   177     1
  176   186     1
  177   178     1
  177   179     1
  179   180     1
  179   181     1
  181   182     1
  181   184     1
  182   183     1
  184   185     1
  184   186     1
  186   187     1
  188   189     1
  188   190     1
  190   191     1
  190   192     1
  192   193     1
  192   194     1
  192   205     1
  194   195     1
  194   196     1
  194   197     1
  197   198     1
  197   199     1
  197   200     1
  200   201     1
  200   202     1
  202   203     1
  202   204     1
  205   206     1
  205   207     1
  207   208     1
  207   209     1
  209   210     1
  209   211     1
  209   217     1
  211   212     1
  211   213     1
  211   214     1
  214   215     1
  214   216     1
  217   218     1
  217   219     1
  219   220     1
  219   221     1
  221   222     1
  221   223     1
  221   238     1
  223   224     1
  223   225     1
  223   226     1
  226   227     1
  226   236     1
  227   228     1
  227   229     1
  229   230     1
  229   231     1
  231   232     1
  231   234     1
  232   233     1
  234   235     1
  234   236     1
  236   237     1
  238   239     1
  238   240     1
  240   241     1
  240   242     1
  242   243     1
  242   244     1
  242   253     1
  244   245     1
  244   246     1
  244   247     1
  247   248     1
  247   249     1
  247   250     1
  250   251     1
  250   252     1
  253   254     1
  253   255     1
  255   256     1
  255   265     1
  256   257     1
  256   258     1
  256   259     1
  259   260     1
  259   261     1
  259   262     1
  262   263     1
  262   264     1
  262   265     1
  265   266     1
  265   267     1
  267   268     1
  267   269     1
  269   270     1
  269   271     1
  271   272     1
  271   273     1
  271   282     1
  273   274     1
  273   275     1
  273   276     1
  276   277     1
  276   278     1
  276   279     1
  279   280     1
  279   281     1
  282   283     1
  282   284     1
  284   285     1
  284   286     1
  286   287     1
  286   288     1
  286   292     1
  288   289     1
  288   290     1
  288   291     1
  292   293     1
  292   294     1


[ pairs ]
    1     8     1
    1     9     1
    1    10     1
    1    14     1
    1    15     1
    2     6     1
    2     7     1
    2    13     1
    3     6     1
    3     7     1
    3    13     1
    4     6     1
    4     7     1
    4    13     1
    5    11     1
    5    12     1
    5    16     1
    5    17     1
    6     8     1
    6     9     1
    6    10     1
    6    14     1
    6    15     1
    7    14     1
    7    15     1
    8    11     1
    8    12     1
    8    13     1
    9    11     1
    9    12     1
    9    13     1
   10    13     1
   13    18     1
   13    19     1
   13    27     1
   14    16     1
   14    17     1
   15    20     1
   15    21     1
   15    22     1
   15    28     1
   15    29     1
   16    18     1
   16    19     1
   16    27     1
   17    23     1
   17    24     1
   17    30     1
   17    31     1
   18    20     1
   18    21     1
   18    22     1
   18    28     1
   18    29     1
   19    25     1
   19    26     1
   19    28     1
   19    29     1
   20    23     1
   20    24     1
   20    27     1
   21    23     1
   21    24     1
   21    27     1
   22    27     1
   23    25     1
   23    26     1
   27    32     1
   27    33     1
   27    42     1
   28    30     1
   28    31     1
   29    34     1
   29    35     1
   29    36     1
   29    43     1
   29    44     1
   30    32     1
   30    33     1
   30    42     1
   31    37     1
   31    38     1
   31    39     1
   31    45     1
   31    46     1
   32    34     1
   32    35     1
   32    36     1
   32    43     1
   32    44     1
   33    40     1
   33    41     1
   33    43     1
   33    44     1
   34    37     1
   34    38     1
   34    39     1
   34    42     1
   35    37     1
   35    38     1
   35    39     1
   35    42     1
   36    42     1
   37    40     1
   37    41     1
   38    40     1
   38    41     1
   42    47     1
   42    48     1
   42    52     1
   43    45     1
   43    46     1
   44    49     1
   44    50     1
   44    51     1
   44    53     1
   44    54     1
   45    47     1
   45    48     1
   45    52     1
   46    55     1
   46    56     1
   47    49     1
   47    50     1
   47    51     1
   47    53     1
   47    54     1
   48    53     1
   48    54     1
   49    52     1
   50    52     1
   51    52     1
   52    57     1
   52    58     1
   52    73     1
   53    55     1
   53    56     1
   54    59     1
   54    60     1
   54    61     1
   54    74     1
   54    75     1
   55    57     1
   55    58     1
   55    73     1
   56    62     1
   56    71     1
   56    76     1
   56    77     1
   57    59     1
   57    60     1
   57    61     1
   57    74     1
   57    75     1
   58    63     1
   58    64     1
   58    69     1
   58    72     1
   58    74     1
   58    75     1
   59    62     1
   59    71     1
   59    73     1
   60    62     1
   60    71     1
   60    73     1
   61    65     1
   61    66     1
   61    70     1
   61    73     1
   62    67     1
   62    69     1
   62    72     1
   63    65     1
   63    66     1
   63    71     1
   64    68     1
   64    70     1
   64    71     1
   65    67     1
   65    69     1
   66    72     1
   67    70     1
   67    71     1
   68    69     1
   70    72     1
   73    78     1
   73    79     1
   73    88     1
   74    76     1
   74    77     1
   75    80     1
   75    81     1
   75    82     1
   75    89     1
   75    90     1
   76    78     1
   76    79     1
   76    88     1
   77    83     1
   77    84     1
   77    85     1
   77    91     1
   77    92     1
   78    80     1
   78    81     1
   78    82     1
   78    89     1
   78    90     1
   79    86     1
   79    87     1
   79    89     1
   79    90     1
   80    83     1
   80    84     1
   80    85     1
   80    88     1
   81    83     1
   81    84     1
   81    85     1
   81    88     1
   82    88     1
   83    86     1
   83    87     1
   84    86     1
   84    87     1
   88    93     1
   88    94     1
   88   105     1
   89    91     1
   89    92     1
   90    95     1
   90    96     1
   90    97     1
   90   106     1
   90   107     1
   91    93     1
   91    94     1
   91   105     1
   92    98     1
   92    99     1
   92   100     1
   92   108     1
   92   117     1
   93    95     1
   93    96     1
   93    97     1
   93   106     1
   93   107     1
   94   101     1
   94   106     1
   94   107     1
   95    98     1
   95    99     1
   95   100     1
   95   105     1
   96    98     1
   96    99     1
   96   100     1
   96   105     1
   97   102     1
   97   103     1
   97   104     1
   97   105     1
   98   101     1
   99   101     1
  105   109     1
  105   110     1
  105   111     1
  105   114     1
  105   118     1
  105   119     1
  106   108     1
  106   117     1
  107   112     1
  107   113     1
  107   115     1
  107   116     1
  107   120     1
  107   121     1
  108   115     1
  108   116     1
  108   118     1
  108   119     1
  109   112     1
  109   113     1
  109   114     1
  109   117     1
  110   112     1
  110   113     1
  110   114     1
  110   117     1
  111   118     1
  111   119     1
  112   115     1
  112   116     1
  112   117     1
  113   115     1
  113   116     1
  113   117     1
  114   120     1
  114   121     1
  115   118     1
  115   119     1
  116   118     1
  116   119     1
  117   122     1
  117   123     1
  118   120     1
  118   121     1
  119   124     1
  119   125     1
  119   130     1
  120   122     1
  120   123     1
  121   126     1
  121   127     1
  121   128     1
  121   131     1
  121   132     1
  122   124     1
  122   125     1
  122   130     1
  123   129     1
  123   133     1
  123   134     1
  124   126     1
  124   127     1
  124   128     1
  124   131     1
  124   132     1
  125   131     1
  125   132     1
  126   129     1
  126   130     1
  127   129     1
  127   130     1
  128   130     1
  130   135     1
  130   136     1
  130   145     1
  131   133     1
  131   134     1
  132   137     1
  132   138     1
  132   139     1
  132   146     1
  132   147     1
  133   135     1
  133   136     1
  133   145     1
  134   140     1
  134   141     1
  134   142     1
  134   148     1
  134   149     1
  135   137     1
  135   138     1
  135   139     1
  135   146     1
  135   147     1
  136   143     1
  136   144     1
  136   146     1
  136   147     1
  137   140     1
  137   141     1
  137   142     1
  137   145     1
  138   140     1
  138   141     1
  138   142     1
  138   145     1
  139   145     1
  140   143     1
  140   144     1
  141   143     1
  141   144     1
  145   150     1
  145   151     1
  145   160     1
  146   148     1
  146   149     1
  147   152     1
  147   153     1
  147   154     1
  147   161     1
  147   162     1
  148   150     1
  148   151     1
  148   160     1
  149   155     1
  149   156     1
  149   157     1
  149   163     1
  149   164     1
  150   152     1
  150   153     1
  150   154     1
  150   161     1
  150   162     1
  151   158     1
  151   159     1
  151   161     1
  151   162     1
  152   155     1
  152   156     1
  152   157     1
  152   160     1
  153   155     1
  153   156     1
  153   157     1
  153   160     1
  154   160     1
  155   158     1
  155   159     1
  156   158     1
  156   159     1
  160   165     1
  160   166     1
  160   167     1
  161   163     1
  161   164     1
  162   168     1
  162   169     1
  163   165     1
  163   166     1
  163   167     1
  164   170     1
  164   171     1
  165   168     1
  165   169     1
  166   168     1
  166   169     1
  167   172     1
  167   173     1
  167   188     1
  168   170     1
  168   171     1
  169   174     1
  169   175     1
  169   176     1
  169   189     1
  169   190     1
  170   172     1
  170   173     1
  170   188     1
  171   177     1
  171   186     1
  171   191     1
  171   192     1
  172   174     1
  172   175     1
  172   176     1
  172   189     1
  172   190     1
  173   178     1
  173   179     1
  173   184     1
  173   187     1
  173   189     1
  173   190     1
  174   177     1
  174   186     1
  174   188     1
  175   177     1
  175   186     1
  175   188     1
  176   180     1
  176   181     1
  176   185     1
  176   188     1
  177   182     1
  177   184     1
  177   187     1
  178   180     1
  178   181     1
  178   186     1
  179   183     1
  179   185     1
  179   186     1
  180   182     1
  180   184     1
  181   187     1
  182   185     1
  182   186     1
  183   184     1
  185   187     1
  188   193     1
  188   194     1
  188   205     1
  189   191     1
  189   192     1
  190   195     1
  190   196     1
  190   197     1
  190   206     1
  190   207     1
  191   193     1
  191   194     1
  191   205     1
  192   198     1
  192   199     1
  192   200     1
  192   208     1
  192   209     1
  193   195     1
  193   196     1
  193   197     1
  193   206     1
  193   207     1
  194   201     1
  194   202     1
  194   206     1
  194   207     1
  195   198     1
  195   199     1
  195   200     1
  195   205     1
  196   198     1
  196   199     1
  196   200     1
  196   205     1
  197   203     1
  197   204     1
  197   205     1
  198   201     1
  198   202     1
  199   201     1
  199   202     1
  201   203     1
  201   204     1
  205   210     1
  205   211     1
  205   217     1
  206   208     1
  206   209     1
  207   212     1
  207   213     1
  207   214     1
  207   218     1
  207   219     1
  208   210     1
  208   211     1
  208   217     1
  209   215     1
  209   216     1
  209   220     1
  209   221     1
  210   212     1
  210   213     1
  210   214     1
  210   218     1
  210   219     1
  211   218     1
  211   219     1
  212   215     1
  212   216     1
  212   217     1
  213   215     1
  213   216     1
  213   217     1
  214   217     1
  217   222     1
  217   223     1
  217   238     1
  218   220     1
  218   221     1
  219   224     1
  219   225     1
  219   226     1
  219   239     1
  219   240     1
  220   222     1
  220   223     1
  220   238     1
  221   227     1
  221   236     1
  221   241     1
  221   242     1
  222   224     1
  222   225     1
  222   226     1
  222   239     1
  222   240     1
  223   228     1
  223   229     1
  223   234     1
  223   237     1
  223   239     1
  223   240     1
  224   227     1
  224   236     1
  224   238     1
  225   227     1
  225   236     1
  225   238     1
  226   230     1
  226   231     1
  226   235     1
  226   238     1
  227   232     1
  227   234     1
  227   237     1
  228   230     1
  228   231     1
  228   236     1
  229   233     1
  229   235     1
  229   236     1
  230   232     1
  230   234     1
  231   237     1
  232   235     1
  232   236     1
  233   234     1
  235   237     1
  238   243     1
  238   244     1
  238   253     1
  239   241     1
  239   242     1
  240   245     1
  240   246     1
  240   247     1
  240   254     1
  240   255     1
  241   243     1
  241   244     1
  241   253     1
  242   248     1
  242   249     1
  242   250     1
  242   256     1
  242   265     1
  243   245     1
  243   246     1
  243   247     1
  243   254     1
  243   255     1
  244   251     1
  244   252     1
  244   254     1
  244   255     1
  245   248     1
  245   249     1
  245   250     1
  245   253     1
  246   248     1
  246   249     1
  246   250     1
  246   253     1
  247   253     1
  248   251     1
  248   252     1
  249   251     1
  249   252     1
  253   257     1
  253   258     1
  253   259     1
  253   262     1
  253   266     1
  253   267     1
  254   256     1
  254   265     1
  255   260     1
  255   261     1
  255   263     1
  255   264     1
  255   268     1
  255   269     1
  256   263     1
  256   264     1
  256   266     1
  256   267     1
  257   260     1
  257   261     1
  257   262     1
  257   265     1
  258   260     1
  258   261     1
  258   262     1
  258   265     1
  259   266     1
  259   267     1
  260   263     1
  260   264     1
  260   265     1
  261   263     1
  261   264     1
  261   265     1
  262   268     1
  262   269     1
  263   266     1
  263   267     1
  264   266     1
  264   267     1
  265   270     1
  265   271     1
  266   268     1
  266   269     1
  267   272     1
  267   273     1
  267   282     1
  268   270     1
  268   271     1
  269   274     1
  269   275     1
  269   276     1
  269   283     1
  269   284     1
  270   272     1
  270   273     1
  270   282     1
  271   277     1
  271   278     1
  271   279     1
  271   285     1
  271   286     1
  272   274     1
  272   275     1
  272   276     1
  272   283     1
  272   284     1
  273   280     1
  273   281     1
  273   283     1
  273   284     1
  274   277     1
  274   278     1
  274   279     1
  274   282     1
  275   277     1
  275   278     1
  275   279     1
  275   282     1
  276   282     1
  277   280     1
  277   281     1
  278   280     1
  278   281     1
  282   287     1
  282   288     1
  282   292     1
  283   285     1
  283   286     1
  284   289     1
  284   290     1
  284   291     1
  284   293     1
  284   294     1
  285   287     1
  285   288     1
  285   292     1
  287   289     1
  287   290     1
  287   291     1
  287   293     1
  287   294     1
  288   293     1
  288   294     1
  289   292     1
  290   292     1
  291   292     1


[ angles ]
    2     1     3     1
    2     1     4     1
    2     1     5     1
    3     1     4     1
    3     1     5     1
    4     1     5     1
    1     5     6     1
    1     5     7     1
    1     5    13     1
    6     5     7     1
    6     5    13     1
    7     5    13     1
    5     7     8     1
    5     7     9     1
    5     7    10     1
    8     7     9     1
    8     7    10     1
    9     7    10     1
    7    10    11     1
    7    10    12     1
   11    10    12     1
    5    13    14     1
    5    13    15     1
   14    13    15     1
   13    15    16     1
   13    15    17     1
   16    15    17     1
   15    17    18     1
   15    17    19     1
   15    17    27     1
   18    17    19     1
   18    17    27     1
   19    17    27     1
   17    19    20     1
   17    19    21     1
   17    19    22     1
   20    19    21     1
   20    19    22     1
   21    19    22     1
   19    22    23     1
   19    22    24     1
   23    22    24     1
   22    24    25     1
   22    24    26     1
   25    24    26     1
   17    27    28     1
   17    27    29     1
   28    27    29     1
   27    29    30     1
   27    29    31     1
   30    29    31     1
   29    31    32     1
   29    31    33     1
   29    31    42     1
   32    31    33     1
   32    31    42     1
   33    31    42     1
   31    33    34     1
   31    33    35     1
   31    33    36     1
   34    33    35     1
   34    33    36     1
   35    33    36     1
   33    36    37     1
   33    36    38     1
   33    36    39     1
   37    36    38     1
   37    36    39     1
   38    36    39     1
   36    39    40     1
   36    39    41     1
   40    39    41     1
   31    42    43     1
   31    42    44     1
   43    42    44     1
   42    44    45     1
   42    44    46     1
   45    44    46     1
   44    46    47     1
   44    46    48     1
   44    46    52     1
   47    46    48     1
   47    46    52     1
   48    46    52     1
   46    48    49     1
   46    48    50     1
   46    48    51     1
   49    48    50     1
   49    48    51     1
   50    48    51     1
   46    52    53     1
   46    52    54     1
   53    52    54     1
   52    54    55     1
   52    54    56     1
   55    54    56     1
   54    56    57     1
   54    56    58     1
   54    56    73     1
   57    56    58     1
   57    56    73     1
   58    56    73     1
   56    58    59     1
   56    58    60     1
   56    58    61     1
   59    58    60     1
   59    58    61     1
   60    58    61     1
   58    61    62     1
   58    61    71     1
   62    61    71     1
   61    62    63     1
   61    62    64     1
   63    62    64     1
   62    64    65     1
   62    64    66     1
   65    64    66     1
   64    66    67     1
   64    66    69     1
   67    66    69     1
   66    67    68     1
   66    69    70     1
   66    69    71     1
   70    69    71     1
   61    71    69     1
   61    71    72     1
   69    71    72     1
   56    73    74     1
   56    73    75     1
   74    73    75     1
   73    75    76     1
   73    75    77     1
   76    75    77     1
   75    77    78     1
   75    77    79     1
   75    77    88     1
   78    77    79     1
   78    77    88     1
   79    77    88     1
   77    79    80     1
   77    79    81     1
   77    79    82     1
   80    79    81     1
   80    79    82     1
   81    79    82     1
   79    82    83     1
   79    82    84     1
   79    82    85     1
   83    82    84     1
   83    82    85     1
   84    82    85     1
   82    85    86     1
   82    85    87     1
   86    85    87     1
   77    88    89     1
   77    88    90     1
   89    88    90     1
   88    90    91     1
   88    90    92     1
   91    90    92     1
   90    92    93     1
   90    92    94     1
   90    92   105     1
   93    92    94     1
   93    92   105     1
   94    92   105     1
   92    94    95     1
   92    94    96     1
   92    94    97     1
   95    94    96     1
   95    94    97     1
   96    94    97     1
   94    97    98     1
   94    97    99     1
   94    97   100     1
   98    97    99     1
   98    97   100     1
   99    97   100     1
   97   100   101     1
  100   101   102     1
  100   101   103     1
  100   101   104     1
  102   101   103     1
  102   101   104     1
  103   101   104     1
   92   105   106     1
   92   105   107     1
  106   105   107     1
  105   107   108     1
  105   107   117     1
  108   107   117     1
  107   108   109     1
  107   108   110     1
  107   108   111     1
  109   108   110     1
  109   108   111     1
  110   108   111     1
  108   111   112     1
  108   111   113     1
  108   111   114     1
  112   111   113     1
  112   111   114     1
  113   111   114     1
  111   114   115     1
  111   114   116     1
  111   114   117     1
  115   114   116     1
  115   114   117     1
  116   114   117     1
  107   117   114     1
  107   117   118     1
  107   117   119     1
  114   117   118     1
  114   117   119     1
  118   117   119     1
  117   119   120     1
  117   119   121     1
  120   119   121     1
  119   121   122     1
  119   121   123     1
  122   121   123     1
  121   123   124     1
  121   123   125     1
  121   123   130     1
  124   123   125     1
  124   123   130     1
  125   123   130     1
  123   125   126     1
  123   125   127     1
  123   125   128     1
  126   125   127     1
  126   125   128     1
  127   125   128     1
  125   128   129     1
  123   130   131     1
  123   130   132     1
  131   130   132     1
  130   132   133     1
  130   132   134     1
  133   132   134     1
  132   134   135     1
  132   134   136     1
  132   134   145     1
  135   134   136     1
  135   134   145     1
  136   134   145     1
  134   136   137     1
  134   136   138     1
  134   136   139     1
  137   136   138     1
  137   136   139     1
  138   136   139     1
  136   139   140     1
  136   139   141     1
  136   139   142     1
  140   139   141     1
  140   139   142     1
  141   139   142     1
  139   142   143     1
  139   142   144     1
  143   142   144     1
  134   145   146     1
  134   145   147     1
  146   145   147     1
  145   147   148     1
  145   147   149     1
  148   147   149     1
  147   149   150     1
  147   149   151     1
  147   149   160     1
  150   149   151     1
  150   149   160     1
  151   149   160     1
  149   151   152     1
  149   151   153     1
  149   151   154     1
  152   151   153     1
  152   151   154     1
  153   151   154     1
  151   154   155     1
  151   154   156     1
  151   154   157     1
  155   154   156     1
  155   154   157     1
  156   154   157     1
  154   157   158     1
  154   157   159     1
  158   157   159     1
  149   160   161     1
  149   160   162     1
  161   160   162     1
  160   162   163     1
  160   162   164     1
  163   162   164     1
  162   164   165     1
  162   164   166     1
  162   164   167     1
  165   164   166     1
  165   164   167     1
  166   164   167     1
  164   167   168     1
  164   167   169     1
  168   167   169     1
  167   169   170     1
  167   169   171     1
  170   169   171     1
  169   171   172     1
  169   171   173     1
  169   171   188     1
  172   171   173     1
  172   171   188     1
  173   171   188     1
  171   173   174     1
  171   173   175     1
  171   173   176     1
  174   173   175     1
  174   173   176     1
  175   173   176     1
  173   176   177     1
  173   176   186     1
  177   176   186     1
  176   177   178     1
  176   177   179     1
  178   177   179     1
  177   179   180     1
  177   179   181     1
  180   179   181     1
  179   181   182     1
  179   181   184     1
  182   181   184     1
  181   182   183     1
  181   184   185     1
  181   184   186     1
  185   184   186     1
  176   186   184     1
  176   186   187     1
  184   186   187     1
  171   188   189     1
  171   188   190     1
  189   188   190     1
  188   190   191     1
  188   190   192     1
  191   190   192     1
  190   192   193     1
  190   192   194     1
  190   192   205     1
  193   192   194     1
  193   192   205     1
  194   192   205     1
  192   194   195     1
  192   194   196     1
  192   194   197     1
  195   194   196     1
  195   194   197     1
  196   194   197     1
  194   197   198     1
  194   197   199     1
  194   197   200     1
  198   197   199     1
  198   197   200     1
  199   197   200     1
  197   200   201     1
  197   200   202     1
  201   200   202     1
  200   202   203     1
  200   202   204     1
  203   202   204     1
  192   205   206     1
  192   205   207     1
  206   205   207     1
  205   207   208     1
  205   207   209     1
  208   207   209     1
  207   209   210     1
  207   209   211     1
  207   209   217     1
  210   209   211     1
  210   209   217     1
  211   209   217     1
  209   211   212     1
  209   211   213     1
  209   211   214     1
  212   211   213     1
  212   211   214     1
  213   211   214     1
  211   214   215     1
  211   214   216     1
  215   214   216     1
  209   217   218     1
  209   217   219     1
  218   217   219     1
  217   219   220     1
  217   219   221     1
  220   219   221     1
  219   221   222     1
  219   221   223     1
  219   221   238     1
  222   221   223     1
  222   221   238     1
  223   221   238     1
  221   223   224     1
  221   223   225     1
  221   223   226     1
  224   223   225     1
  224   223   226     1
  225   223   226     1
  223   226   227     1
  223   226   236     1
  227   226   236     1
  226   227   228     1
  226   227   229     1
  228   227   229     1
  227   229   230     1
  227   229   231     1
  230   229   231     1
  229   231   232     1
  229   231   234     1
  232   231   234     1
  231   232   233     1
  231   234   235     1
  231   234   236     1
  235   234   236     1
  226   236   234     1
  226   236   237     1
  234   236   237     1
  221   238   239     1
  221   238   240     1
  239   238   240     1
  238   240   241     1
  238   240   242     1
  241   240   242     1
  240   242   243     1
  240   242   244     1
  240   242   253     1
  243   242   244     1
  243   242   253     1
  244   242   253     1
  242   244   245     1
  242   244   246     1
  242   244   247     1
  245   244   246     1
  245   244   247     1
  246   244   247     1
  244   247   248     1
  244   247   249     1
  244   247   250     1
  248   247   249     1
  248   247   250     1
  249   247   250     1
  247   250   251     1
  247   250   252     1
  251   250   252     1
  242   253   254     1
  242   253   255     1
  254   253   255     1
  253   255   256     1
  253   255   265     1
  256   255   265     1
  255   256   257     1
  255   256   258     1
  255   256   259     1
  257   256   258     1
  257   256   259     1
  258   256   259     1
  256   259   260     1
  256   259   261     1
  256   259   262     1
  260   259   261     1
  260   259   262     1
  261   259   262     1
  259   262   263     1
  259   262   264     1
  259   262   265     1
  263   262   264     1
  263   262   265     1
  264   262   265     1
  255   265   262     1
  255   265   266     1
  255   265   267     1
  262   265   266     1
  262   265   267     1
  266   265   267     1
  265   267   268     1
  265   267   269     1
  268   267   269     1
  267   269   270     1
  267   269   271     1
  270   269   271     1
  269   271   272     1
  269   271   273     1
  269   271   282     1
  272   271   273     1
  272   271   282     1
  273   271   282     1
  271   273   274     1
  271   273   275     1
  271   273   276     1
  274   273   275     1
  274   273   276     1
  275   273   276     1
  273   276   277     1
  273   276   278     1
  273   276   279     1
  277   276   278     1
  277   276   279     1
  278   276   279     1
  276   279   280     1
  276   279   281     1
  280   279   281     1
  271   282   283     1
  271   282   284     1
  283   282   284     1
  282   284   285     1
  282   284   286     1
  285   284   286     1
  284   286   287     1
  284   286   288     1
  284   286   292     1
  287   286   288     1
  287   286   292     1
  288   286   292     1
  286   288   289     1
  286   288   290     1
  286   288   291     1
  289   288   290     1
  289   288   291     1
  290   288   291     1
  286   292   293     1
  286   292   294     1
  293   292   294     1


[ dihedrals ]
    5    15    13    14     4  
    7    11    10    12     4  
   13    17    15    16     4  
   13    15    17    27     4     90.0        1.67360    2
   15    17    27    29     4     90.0        0.2385     3
   15    17    27    29     4     90.0        0.1046     4
   15    17    27    29     4     90.0        -0.0460    5
   15    17    27    29     4     160.888      2.71960    1
   15    17    27    29     4     90.0        -1.0669    1
   15    17    27    29     4     90.0        0.3138     2
   17    29    27    28     4  
   19    24    22    23     4  
   22    25    24    26     4  
   27    31    29    30     4  
   27    29    31    42     4     90.0        1.67360    2
   29    31    42    44     4     160.888      2.71960    1
   29    31    42    44     4     90.0        -1.0669    1
   29    31    42    44     4     90.0        0.3138     2
   29    31    42    44     4     90.0        0.2385     3
   29    31    42    44     4     90.0        0.1046     4
   29    31    42    44     4     90.0        -0.0460    5
   31    44    42    43     4  
   36    40    39    41     4  
   42    46    44    45     4  
   42    44    46    52     4     90.0        1.67360    2
   44    46    52    54     4     90.0        0.3138     2
   44    46    52    54     4     90.0        0.1046     4
   44    46    52    54     4     90.0        -0.0460    5
   44    46    52    54     4     90.0        0.2385     3
   44    46    52    54     4     160.888      2.71960    1
   44    46    52    54     4     90.0        -1.0669    1
   46    54    52    53     4  
   52    56    54    55     4  
   52    54    56    73     4     90.0        1.67360    2
   54    56    73    75     4     90.0        -1.0669    1
   54    56    73    75     4     90.0        0.3138     2
   54    56    73    75     4     90.0        0.2385     3
   54    56    73    75     4     90.0        0.1046     4
   54    56    73    75     4     90.0        -0.0460    5
   54    56    73    75     4     160.888      2.71960    1
   56    75    73    74     4  
   58    61    71    62     4  
   61    64    62    63     4  
   61    69    71    72     4  
   62    66    64    65     4  
   64    69    66    67     4  
   66    71    69    70     4  
   73    77    75    76     4  
   73    75    77    88     4     90.0        1.67360    2
   75    77    88    90     4     160.888      2.71960    1
   75    77    88    90     4     90.0        -1.0669    1
   75    77    88    90     4     90.0        0.3138     2
   75    77    88    90     4     90.0        0.1046     4
   75    77    88    90     4     90.0        -0.0460    5
   75    77    88    90     4     90.0        0.2385     3
   77    90    88    89     4  
   82    86    85    87     4  
   88    92    90    91     4  
   88    90    92   105     4     90.0        1.67360    2
   90    92   105   107     4     90.0        -1.0669    1
   90    92   105   107     4     90.0        0.3138     2
   90    92   105   107     4     90.0        0.2385     3
   90    92   105   107     4     90.0        0.1046     4
   90    92   105   107     4     90.0        -0.0460    5
   90    92   105   107     4     160.888      2.71960    1
   92   107   105   106     4  
  105   108   107   117     4  
  117   121   119   120     4  
  119   123   121   122     4  
  119   121   123   130     4     90.0        1.67360    2
  121   123   130   132     4     90.0        0.1046     4
  121   123   130   132     4     90.0        -0.0460    5
  121   123   130   132     4     90.0        0.2385     3
  121   123   130   132     4     160.888      2.71960    1
  121   123   130   132     4     90.0        -1.0669    1
  121   123   130   132     4     90.0        0.3138     2
  123   132   130   131     4  
  130   134   132   133     4  
  130   132   134   145     4     90.0        1.67360    2
  132   134   145   147     4     90.0        -1.0669    1
  132   134   145   147     4     90.0        0.3138     2
  132   134   145   147     4     90.0        0.2385     3
  132   134   145   147     4     90.0        0.1046     4
  132   134   145   147     4     90.0        -0.0460    5
  132   134   145   147     4     160.888      2.71960    1
  134   147   145   146     4  
  139   143   142   144     4  
  145   149   147   148     4  
  145   147   149   160     4     90.0        1.67360    2
  147   149   160   162     4     90.0        -1.0669    1
  147   149   160   162     4     90.0        0.3138     2
  147   149   160   162     4     90.0        0.2385     3
  147   149   160   162     4     90.0        0.1046     4
  147   149   160   162     4     90.0        -0.0460    5
  147   149   160   162     4     160.888      2.71960    1
  149   162   160   161     4  
  154   158   157   159     4  
  160   164   162   163     4  
  164   169   167   168     4  
  167   171   169   170     4  
  167   169   171   188     4     90.0        1.67360    2
  169   171   188   190     4     160.888      2.71960    1
  169   171   188   190     4     90.0        -1.0669    1
  169   171   188   190     4     90.0        0.3138     2
  169   171   188   190     4     90.0        0.2385     3
  169   171   188   190     4     90.0        0.1046     4
  169   171   188   190     4     90.0        -0.0460    5
  171   190   188   189     4  
  173   176   186   177     4  
  176   179   177   178     4  
  176   184   186   187     4  
  177   181   179   180     4  
  179   184   181   182     4  
  181   186   184   185     4  
  188   192   190   191     4  
  188   190   192   205     4     90.0        1.67360    2
  190   192   205   207     4     90.0        -1.0669    1
  190   192   205   207     4     160.888      2.71960    1
  190   192   205   207     4     90.0        0.3138     2
  190   192   205   207     4     90.0        0.2385     3
  190   192   205   207     4     90.0        0.1046     4
  190   192   205   207     4     90.0        -0.0460    5
  192   207   205   206     4  
  197   202   200   201     4  
  200   203   202   204     4  
  205   209   207   208     4  
  205   207   209   217     4     90.0        1.67360    2
  207   209   217   219     4     160.888      2.71960    1
  207   209   217   219     4     90.0        0.2385     3
  207   209   217   219     4     90.0        0.1046     4
  207   209   217   219     4     90.0        -0.0460    5
  207   209   217   219     4     90.0        0.3138     2
  207   209   217   219     4     90.0        -1.0669    1
  209   219   217   218     4  
  211   215   214   216     4  
  217   221   219   220     4  
  217   219   221   238     4     90.0        1.67360    2
  219   221   238   240     4     90.0        0.3138     2
  219   221   238   240     4     160.888      2.71960    1
  219   221   238   240     4     90.0        -1.0669    1
  219   221   238   240     4     90.0        0.2385     3
  219   221   238   240     4     90.0        0.1046     4
  219   221   238   240     4     90.0        -0.0460    5
  221   240   238   239     4  
  223   226   236   227     4  
  226   229   227   228     4  
  226   234   236   237     4  
  227   231   229   230     4  
  229   234   231   232     4  
  231   236   234   235     4  
  238   242   240   241     4  
  238   240   242   253     4     90.0        1.67360    2
  240   242   253   255     4     90.0        0.3138     2
  240   242   253   255     4     90.0        0.2385     3
  240   242   253   255     4     90.0        0.1046     4
  240   242   253   255     4     90.0        -0.0460    5
  240   242   253   255     4     160.888      2.71960    1
  240   242   253   255     4     90.0        -1.0669    1
  242   255   253   254     4  
  247   251   250   252     4  
  253   256   255   265     4  
  265   269   267   268     4  
  267   271   269   270     4  
  267   269   271   282     4     90.0        1.67360    2
  269   271   282   284     4     160.888      2.71960    1
  269   271   282   284     4     90.0        -1.0669    1
  269   271   282   284     4     90.0        0.3138     2
  269   271   282   284     4     90.0        0.2385     3
  269   271   282   284     4     90.0        0.1046     4
  269   271   282   284     4     90.0        -0.0460    5
  271   284   282   283     4  
  276   280   279   281     4  
  282   286   284   285     4  
  282   284   286   292     4     90.0        1.67360    2
  286   293   292   294     4  





[ moleculetype ]
;name            nrexcl
 L47              3

[ atoms ]
     1   c3     1   L47     C    1    -0.171100     12.01000 ; qtot -0.171
     2   hc     1   L47     H    2     0.082033      1.00800 ; qtot -0.089
     3   hc     1   L47    H1    3     0.082033      1.00800 ; qtot -0.007
     4   hc     1   L47    H2    4     0.082033      1.00800 ; qtot 0.075
     5    c     1   L47    C1    5     0.681100     12.01000 ; qtot 0.756
     6    o     1   L47     O    6    -0.559100     16.00000 ; qtot 0.197
     7    n     1   L47     N    7    -0.382000     14.01000 ; qtot -0.185
     8   c3     1   L47    C2    8     0.082000     12.01000 ; qtot -0.103
     9   h1     1   L47    H3    9     0.067200      1.00800 ; qtot -0.036
    10   h1     1   L47    H4   10     0.067200      1.00800 ; qtot 0.031
    11   c3     1   L47    C3   11    -0.040100     12.01000 ; qtot -0.009
    12   hc     1   L47    H5   12     0.078700      1.00800 ; qtot 0.070
    13   hc     1   L47    H6   13     0.078700      1.00800 ; qtot 0.149
    14   ca     1   L47    C4   14    -0.167300     12.01000 ; qtot -0.019
    15   ca     1   L47    C5   15     0.173600     12.01000 ; qtot 0.155
    16   ca     1   L47    C6   16    -0.185000     12.01000 ; qtot -0.030
    17   ha     1   L47    H7   17     0.191000      1.00800 ; qtot 0.161
    18   ca     1   L47    C7   18     0.023000     12.01000 ; qtot 0.184
    19   ha     1   L47    H8   19     0.143000      1.00800 ; qtot 0.327
    20   ca     1   L47    C8   20    -0.498500     12.01000 ; qtot -0.172
    21   ca     1   L47    C9   21     0.038000     12.01000 ; qtot -0.134
    22   ha     1   L47    H9   22     0.161000      1.00800 ; qtot 0.027
    23   sy     1   L47     S   23     1.523201     32.06000 ; qtot 1.551
    24    o     1   L47    O1   24    -0.667800     16.00000 ; qtot 0.883
    25    o     1   L47    O2   25    -0.667800     16.00000 ; qtot 0.215
    26   n3     1   L47    N1   26    -0.795500     14.01000 ; qtot -0.580
    27   c3     1   L47   C10   27     0.195800     12.01000 ; qtot -0.385
    28   h1     1   L47   H10   28     0.089200      1.00800 ; qtot -0.295
    29   h1     1   L47   H11   29     0.089200      1.00800 ; qtot -0.206
    30   c3     1   L47   C11   30    -0.140400     12.01000 ; qtot -0.347
    31   hc     1   L47   H12   31     0.094200      1.00800 ; qtot -0.252
    32   hc     1   L47   H13   32     0.094200      1.00800 ; qtot -0.158
    33   c3     1   L47   C12   33     0.113800     12.01000 ; qtot -0.044
    34   hx     1   L47   H14   34     0.099700      1.00800 ; qtot 0.055
    35   hx     1   L47   H15   35     0.099700      1.00800 ; qtot 0.155
    36   n4     1   L47    N2   36    -0.762000     14.01000 ; qtot -0.607
    37   hn     1   L47   H16   37     0.471300      1.00800 ; qtot -0.136
    38   hn     1   L47   H17   38     0.471300      1.00800 ; qtot 0.336
    39   c3     1   L47   C13   39     0.070800     12.01000 ; qtot 0.406
    40   hx     1   L47   H18   40     0.103200      1.00800 ; qtot 0.510
    41   hx     1   L47   H19   41     0.103200      1.00800 ; qtot 0.613
    42   c3     1   L47   C14   42     0.210800     12.01000 ; qtot 0.824
    43   h1     1   L47   H20   43     0.088200      1.00800 ; qtot 0.912
    44   h1     1   L47   H21   44     0.088200      1.00800 ; qtot 1.000


[ bonds ]
     1      2   1    1.0969e-01    2.7665e+05 ;      C - H     
     1      3   1    1.0969e-01    2.7665e+05 ;      C - H1    
     1      4   1    1.0969e-01    2.7665e+05 ;      C - H2    
     1      5   1    1.5241e-01    2.6192e+05 ;      C - C1    
     5      6   1    1.2183e-01    5.3363e+05 ;     C1 - O     
     5      7   1    1.3789e-01    3.5782e+05 ;     C1 - N     
     7      8   1    1.4619e-01    2.7506e+05 ;      N - C2    
     7     15   1    1.4121e-01    3.2150e+05 ;      N - C5    
     8      9   1    1.0969e-01    2.7665e+05 ;     C2 - H3    
     8     10   1    1.0969e-01    2.7665e+05 ;     C2 - H4    
     8     11   1    1.5375e-01    2.5179e+05 ;     C2 - C3    
    11     12   1    1.0969e-01    2.7665e+05 ;     C3 - H5    
    11     13   1    1.0969e-01    2.7665e+05 ;     C3 - H6    
    11     14   1    1.5156e-01    2.6861e+05 ;     C3 - C4    
    14     15   1    1.3984e-01    3.8585e+05 ;     C4 - C5    
    14     21   1    1.3984e-01    3.8585e+05 ;     C4 - C9    
    15     16   1    1.3984e-01    3.8585e+05 ;     C5 - C6    
    16     17   1    1.0860e-01    2.8937e+05 ;     C6 - H7    
    16     18   1    1.3984e-01    3.8585e+05 ;     C6 - C7    
    18     19   1    1.0860e-01    2.8937e+05 ;     C7 - H8    
    18     20   1    1.3984e-01    3.8585e+05 ;     C7 - C8    
    20     21   1    1.3984e-01    3.8585e+05 ;     C8 - C9    
    20     23   1    1.7909e-01    2.0368e+05 ;     C8 - S     
    21     22   1    1.0860e-01    2.8937e+05 ;     C9 - H9    
    23     24   1    1.4660e-01    4.1254e+05 ;      S - O1    
    23     25   1    1.4660e-01    4.1254e+05 ;      S - O2    
    23     26   1    1.6962e-01    2.4886e+05 ;      S - N1    
    26     27   1    1.4647e-01    2.7271e+05 ;     N1 - C10   
    26     42   1    1.4647e-01    2.7271e+05 ;     N1 - C14   
    27     28   1    1.0969e-01    2.7665e+05 ;    C10 - H10   
    27     29   1    1.0969e-01    2.7665e+05 ;    C10 - H11   
    27     30   1    1.5375e-01    2.5179e+05 ;    C10 - C11   
    30     31   1    1.0969e-01    2.7665e+05 ;    C11 - H12   
    30     32   1    1.0969e-01    2.7665e+05 ;    C11 - H13   
    30     33   1    1.5375e-01    2.5179e+05 ;    C11 - C12   
    33     34   1    1.0910e-01    2.8342e+05 ;    C12 - H14   
    33     35   1    1.0910e-01    2.8342e+05 ;    C12 - H15   
    33     36   1    1.5110e-01    2.3707e+05 ;    C12 - N2    
    36     37   1    1.0304e-01    3.1229e+05 ;     N2 - H16   
    36     38   1    1.0304e-01    3.1229e+05 ;     N2 - H17   
    36     39   1    1.5110e-01    2.3707e+05 ;     N2 - C13   
    39     40   1    1.0910e-01    2.8342e+05 ;    C13 - H18   
    39     41   1    1.0910e-01    2.8342e+05 ;    C13 - H19   
    39     42   1    1.5375e-01    2.5179e+05 ;    C13 - C14   
    42     43   1    1.0969e-01    2.7665e+05 ;    C14 - H20   
    42     44   1    1.0969e-01    2.7665e+05 ;    C14 - H21   


[ pairs ]
     1      8      1 ;      C - C2    
     1     15      1 ;      C - C5    
     2      6      1 ;      H - O     
     2      7      1 ;      H - N     
     3      6      1 ;     H1 - O     
     3      7      1 ;     H1 - N     
     4      6      1 ;     H2 - O     
     4      7      1 ;     H2 - N     
     5      9      1 ;     C1 - H3    
     5     10      1 ;     C1 - H4    
     5     11      1 ;     C1 - C3    
     5     14      1 ;     C1 - C4    
     5     16      1 ;     C1 - C6    
     6      8      1 ;      O - C2    
     6     15      1 ;      O - C5    
     7     12      1 ;      N - H5    
     7     13      1 ;      N - H6    
     7     17      1 ;      N - H7    
     7     18      1 ;      N - C7    
     7     21      1 ;      N - C9    
     8     16      1 ;     C2 - C6    
     8     21      1 ;     C2 - C9    
     9     12      1 ;     H3 - H5    
     9     13      1 ;     H3 - H6    
     9     14      1 ;     H3 - C4    
     9     15      1 ;     H3 - C5    
    10     12      1 ;     H4 - H5    
    10     13      1 ;     H4 - H6    
    10     14      1 ;     H4 - C4    
    10     15      1 ;     H4 - C5    
    11     16      1 ;     C3 - C6    
    11     20      1 ;     C3 - C8    
    11     22      1 ;     C3 - H9    
    12     15      1 ;     H5 - C5    
    12     21      1 ;     H5 - C9    
    13     15      1 ;     H6 - C5    
    13     21      1 ;     H6 - C9    
    14     17      1 ;     C4 - H7    
    14     18      1 ;     C4 - C7    
    14     23      1 ;     C4 - S     
    15     19      1 ;     C5 - H8    
    15     20      1 ;     C5 - C8    
    15     22      1 ;     C5 - H9    
    16     21      1 ;     C6 - C9    
    16     23      1 ;     C6 - S     
    17     19      1 ;     H7 - H8    
    17     20      1 ;     H7 - C8    
    18     22      1 ;     C7 - H9    
    18     24      1 ;     C7 - O1    
    18     25      1 ;     C7 - O2    
    18     26      1 ;     C7 - N1    
    19     21      1 ;     H8 - C9    
    19     23      1 ;     H8 - S     
    20     27      1 ;     C8 - C10   
    20     42      1 ;     C8 - C14   
    21     24      1 ;     C9 - O1    
    21     25      1 ;     C9 - O2    
    21     26      1 ;     C9 - N1    
    22     23      1 ;     H9 - S     
    23     28      1 ;      S - H10   
    23     29      1 ;      S - H11   
    23     30      1 ;      S - C11   
    23     39      1 ;      S - C13   
    23     43      1 ;      S - H20   
    23     44      1 ;      S - H21   
    24     27      1 ;     O1 - C10   
    24     42      1 ;     O1 - C14   
    25     27      1 ;     O2 - C10   
    25     42      1 ;     O2 - C14   
    26     31      1 ;     N1 - H12   
    26     32      1 ;     N1 - H13   
    26     33      1 ;     N1 - C12   
    26     36      1 ;     N1 - N2    
    26     40      1 ;     N1 - H18   
    26     41      1 ;     N1 - H19   
    27     34      1 ;    C10 - H14   
    27     35      1 ;    C10 - H15   
    27     36      1 ;    C10 - N2    
    27     39      1 ;    C10 - C13   
    27     43      1 ;    C10 - H20   
    27     44      1 ;    C10 - H21   
    28     31      1 ;    H10 - H12   
    28     32      1 ;    H10 - H13   
    28     33      1 ;    H10 - C12   
    28     42      1 ;    H10 - C14   
    29     31      1 ;    H11 - H12   
    29     32      1 ;    H11 - H13   
    29     33      1 ;    H11 - C12   
    29     42      1 ;    H11 - C14   
    30     37      1 ;    C11 - H16   
    30     38      1 ;    C11 - H17   
    30     39      1 ;    C11 - C13   
    30     42      1 ;    C11 - C14   
    31     34      1 ;    H12 - H14   
    31     35      1 ;    H12 - H15   
    31     36      1 ;    H12 - N2    
    32     34      1 ;    H13 - H14   
    32     35      1 ;    H13 - H15   
    32     36      1 ;    H13 - N2    
    33     40      1 ;    C12 - H18   
    33     41      1 ;    C12 - H19   
    33     42      1 ;    C12 - C14   
    34     37      1 ;    H14 - H16   
    34     38      1 ;    H14 - H17   
    34     39      1 ;    H14 - C13   
    35     37      1 ;    H15 - H16   
    35     38      1 ;    H15 - H17   
    35     39      1 ;    H15 - C13   
    36     43      1 ;     N2 - H20   
    36     44      1 ;     N2 - H21   
    37     40      1 ;    H16 - H18   
    37     41      1 ;    H16 - H19   
    37     42      1 ;    H16 - C14   
    38     40      1 ;    H17 - H18   
    38     41      1 ;    H17 - H19   
    38     42      1 ;    H17 - C14   
    40     43      1 ;    H18 - H20   
    40     44      1 ;    H18 - H21   
    41     43      1 ;    H19 - H20   
    41     44      1 ;    H19 - H21   


[ angles ]
     1      5      6      1    1.2320e+02    5.6400e+02 ;      C - C1     - O     
     1      5      7      1    1.1518e+02    5.5898e+02 ;      C - C1     - N     
     2      1      3      1    1.0758e+02    3.2970e+02 ;      H - C      - H1    
     2      1      4      1    1.0758e+02    3.2970e+02 ;      H - C      - H2    
     2      1      5      1    1.0877e+02    3.9246e+02 ;      H - C      - C1    
     3      1      4      1    1.0758e+02    3.2970e+02 ;     H1 - C      - H2    
     3      1      5      1    1.0877e+02    3.9246e+02 ;     H1 - C      - C1    
     4      1      5      1    1.0877e+02    3.9246e+02 ;     H2 - C      - C1    
     5      7      8      1    1.2069e+02    5.3053e+02 ;     C1 - N      - C2    
     5      7     15      1    1.2371e+02    5.3388e+02 ;     C1 - N      - C5    
     6      5      7      1    1.2305e+02    6.2091e+02 ;      O - C1     - N     
     7      8      9      1    1.0888e+02    4.1673e+02 ;      N - C2     - H3    
     7      8     10      1    1.0888e+02    4.1673e+02 ;      N - C2     - H4    
     7      8     11      1    1.1161e+02    5.5145e+02 ;      N - C2     - C3    
     7     15     14      1    1.2019e+02    5.6819e+02 ;      N - C5     - C4    
     7     15     16      1    1.2019e+02    5.6819e+02 ;      N - C5     - C6    
     8      7     15      1    1.1983e+02    5.2718e+02 ;     C2 - N      - C5    
     8     11     12      1    1.0980e+02    3.8744e+02 ;     C2 - C3     - H5    
     8     11     13      1    1.0980e+02    3.8744e+02 ;     C2 - C3     - H6    
     8     11     14      1    1.1207e+02    5.2802e+02 ;     C2 - C3     - C4    
     9      8     10      1    1.0846e+02    3.2803e+02 ;     H3 - C2     - H4    
     9      8     11      1    1.0956e+02    3.8828e+02 ;     H3 - C2     - C3    
    10      8     11      1    1.0956e+02    3.8828e+02 ;     H4 - C2     - C3    
    11     14     15      1    1.2077e+02    5.3137e+02 ;     C3 - C4     - C5    
    11     14     21      1    1.2077e+02    5.3137e+02 ;     C3 - C4     - C9    
    12     11     13      1    1.0758e+02    3.2970e+02 ;     H5 - C3     - H6    
    12     11     14      1    1.1047e+02    3.9162e+02 ;     H5 - C3     - C4    
    13     11     14      1    1.1047e+02    3.9162e+02 ;     H6 - C3     - C4    
    14     15     16      1    1.2002e+02    5.5731e+02 ;     C4 - C5     - C6    
    14     21     20      1    1.2002e+02    5.5731e+02 ;     C4 - C9     - C8    
    14     21     22      1    1.1988e+02    4.0334e+02 ;     C4 - C9     - H9    
    15     14     21      1    1.2002e+02    5.5731e+02 ;     C5 - C4     - C9    
    15     16     17      1    1.1988e+02    4.0334e+02 ;     C5 - C6     - H7    
    15     16     18      1    1.2002e+02    5.5731e+02 ;     C5 - C6     - C7    
    16     18     19      1    1.1988e+02    4.0334e+02 ;     C6 - C7     - H8    
    16     18     20      1    1.2002e+02    5.5731e+02 ;     C6 - C7     - C8    
    17     16     18      1    1.1988e+02    4.0334e+02 ;     H7 - C6     - C7    
    18     20     21      1    1.2002e+02    5.5731e+02 ;     C7 - C8     - C9    
    18     20     23      1    1.1942e+02    5.1463e+02 ;     C7 - C8     - S     
    19     18     20      1    1.1988e+02    4.0334e+02 ;     H8 - C7     - C8    
    20     21     22      1    1.1988e+02    4.0334e+02 ;     C8 - C9     - H9    
    20     23     24      1    1.0835e+02    5.5061e+02 ;     C8 - S      - O1    
    20     23     25      1    1.0835e+02    5.5061e+02 ;     C8 - S      - O2    
    20     23     26      1    1.0244e+02    5.3555e+02 ;     C8 - S      - N1    
    21     20     23      1    1.1942e+02    5.1463e+02 ;     C9 - C8     - S     
    23     26     27      1    1.1525e+02    5.2300e+02 ;      S - N1     - C10   
    23     26     42      1    1.1525e+02    5.2300e+02 ;      S - N1     - C14   
    24     23     25      1    1.2141e+02    6.0668e+02 ;     O1 - S      - O2    
    24     23     26      1    1.0713e+02    5.8911e+02 ;     O1 - S      - N1    
    25     23     26      1    1.0713e+02    5.8911e+02 ;     O2 - S      - N1    
    26     27     28      1    1.0988e+02    4.1422e+02 ;     N1 - C10    - H10   
    26     27     29      1    1.0988e+02    4.1422e+02 ;     N1 - C10    - H11   
    26     27     30      1    1.1104e+02    5.5229e+02 ;     N1 - C10    - C11   
    26     42     39      1    1.1104e+02    5.5229e+02 ;     N1 - C14    - C13   
    26     42     43      1    1.0988e+02    4.1422e+02 ;     N1 - C14    - H20   
    26     42     44      1    1.0988e+02    4.1422e+02 ;     N1 - C14    - H21   
    27     26     42      1    1.1235e+02    5.3388e+02 ;    C10 - N1     - C14   
    27     30     31      1    1.0980e+02    3.8744e+02 ;    C10 - C11    - H12   
    27     30     32      1    1.0980e+02    3.8744e+02 ;    C10 - C11    - H13   
    27     30     33      1    1.1151e+02    5.2635e+02 ;    C10 - C11    - C12   
    28     27     29      1    1.0846e+02    3.2803e+02 ;    H10 - C10    - H11   
    28     27     30      1    1.0956e+02    3.8828e+02 ;    H10 - C10    - C11   
    29     27     30      1    1.0956e+02    3.8828e+02 ;    H11 - C10    - C11   
    30     33     34      1    1.1056e+02    3.8660e+02 ;    C11 - C12    - H14   
    30     33     35      1    1.1056e+02    3.8660e+02 ;    C11 - C12    - H15   
    30     33     36      1    1.1421e+02    5.3723e+02 ;    C11 - C12    - N2    
    31     30     32      1    1.0758e+02    3.2970e+02 ;    H12 - C11    - H13   
    31     30     33      1    1.0980e+02    3.8744e+02 ;    H12 - C11    - C12   
    32     30     33      1    1.0980e+02    3.8744e+02 ;    H13 - C11    - C12   
    33     36     37      1    1.1011e+02    3.8409e+02 ;    C12 - N2     - H16   
    33     36     38      1    1.1011e+02    3.8409e+02 ;    C12 - N2     - H17   
    33     36     39      1    1.0966e+02    5.2384e+02 ;    C12 - N2     - C13   
    34     33     35      1    1.0975e+02    3.2803e+02 ;    H14 - C12    - H15   
    34     33     36      1    1.0801e+02    4.0668e+02 ;    H14 - C12    - N2    
    35     33     36      1    1.0801e+02    4.0668e+02 ;    H15 - C12    - N2    
    36     39     40      1    1.0801e+02    4.0668e+02 ;     N2 - C13    - H18   
    36     39     41      1    1.0801e+02    4.0668e+02 ;     N2 - C13    - H19   
    36     39     42      1    1.1421e+02    5.3723e+02 ;     N2 - C13    - C14   
    37     36     38      1    1.0830e+02    3.3974e+02 ;    H16 - N2     - H17   
    37     36     39      1    1.1011e+02    3.8409e+02 ;    H16 - N2     - C13   
    38     36     39      1    1.1011e+02    3.8409e+02 ;    H17 - N2     - C13   
    39     42     43      1    1.0956e+02    3.8828e+02 ;    C13 - C14    - H20   
    39     42     44      1    1.0956e+02    3.8828e+02 ;    C13 - C14    - H21   
    40     39     41      1    1.0975e+02    3.2803e+02 ;    H18 - C13    - H19   
    40     39     42      1    1.1056e+02    3.8660e+02 ;    H18 - C13    - C14   
    41     39     42      1    1.1056e+02    3.8660e+02 ;    H19 - C13    - C14   
    43     42     44      1    1.0846e+02    3.2803e+02 ;    H20 - C14    - H21   


[ dihedrals ]
     1      7      5      6      4   180.00  43.93200   2 ;      C-     N-    C1-     O
     5      8      7     15      4   180.00   4.60240   2 ;     C1-    C2-     N-    C5
    14     16     15      7      4   180.00   4.60240   2 ;     C4-    C6-    C5-     N
    14     20     21     22      4   180.00   4.60240   2 ;     C4-    C8-    C9-    H9
    15     18     16     17      4   180.00   4.60240   2 ;     C5-    C7-    C6-    H7
    15     21     14     11      4   180.00   4.60240   2 ;     C5-    C9-    C4-    C3
    16     20     18     19      4   180.00   4.60240   2 ;     C6-    C8-    C7-    H8
    18     21     20     23      4   180.00   4.60240   2 ;     C7-    C9-    C8-     S



[ moleculetype ]
; molname	nrexcl
SOL		1

[ atoms ]
1       OW_tip4pd    	1	SOL	 OW		1	0        16.00000
2	HW       	1	SOL	HW2		1	0.5900 	  1.00800
3	HW	        1	SOL	HW3		1	0.5900 	  1.00800
4	MW		1	SOL	MW4		1      -1.1800    0.00000


[ settles ]
1	1	0.09572	0.15139


[ virtual_sites3 ]
4	1	2	3	1	0.131937768	0.131937768


[ exclusions ]
1	2	3	4
2	1	3	4
3	1	2	4
4	1	2	3




[ moleculetype ]
; molname       nrexcl
IB+             1       ; big positive ion

[ atoms ]
   1    IB                  1       IB+            IB      1    1.00000



[ moleculetype ]
; molname       nrexcl
CA              1

[ atoms ]
   1    C0                  1       CA             CA      1    2.00000



[ moleculetype ]
; molname       nrexcl
CL              1

[ atoms ]
   1    Cl                  1       CL             CL      1   -1.00000



[ moleculetype ]
; molname       nrexcl
NA              1

[ atoms ]
   1    Na                  1       NA             NA      1    1.00000



[ moleculetype ]
; molname       nrexcl
MG              1

[ atoms ]
   1    MG                  1       MG             MG      1    2.00000



[ moleculetype ]
; molname       nrexcl
K               1

[ atoms ]
   1    K                   1       K              K       1    1.00000



[ moleculetype ]
; molname       nrexcl
RB              1

[ atoms ]
   1    Rb                  1       RB             RB      1    1.00000



[ moleculetype ]
; molname       nrexcl
CS              1

[ atoms ]
   1    Cs                  1       CS             CS      1    1.00000



[ moleculetype ]
; molname       nrexcl
LI              1

[ atoms ]
   1    Li                  1       LI             LI      1    1.00000



[ moleculetype ]
; molname       nrexcl
ZN              1

[ atoms ]
   1    Zn                  1       ZN             ZN      1    2.00000


 [ system ] 
; Name
A-SYNC WITH LIG-47 in water

 [ molecules ] 
; Compound        #mols
Protein_chain_A     1
L47		    1
SOL         8739
NA               7

