 [ defaults ] 
; nbfunc        comb-rule       gen-pairs       fudgeLJ fudgeQQ
1               2               yes             0.5     0.8333

[ atomtypes ]
Br           35      79.90   0.0000  A  0.00000e+00  0.00000e+00
sBr          35      79.90   0.0000  A  0.00000e+00  0.00000e+00
C            6       12.01   0.0000  A  3.39967e-01  3.59824e-01
sC           6       12.01   0.0000  A  3.39967e-01  2.32238e-01
C6           6       12.01   0.0000  A  3.39967e-01  3.59824e-01
sC6          6       12.01   0.0000  A  3.39967e-01  2.32238e-01
C5           6       12.01   0.0000  A  3.39967e-01  3.59824e-01
sC5          6       12.01   0.0000  A  3.39967e-01  2.32238e-01
CA           6       12.01   0.0000  A  3.39967e-01  3.59824e-01
sCA          6       12.01   0.0000  A  3.39967e-01  2.32238e-01
CB           6       12.01   0.0000  A  3.39967e-01  3.59824e-01
sCB          6       12.01   0.0000  A  3.39967e-01  2.32238e-01
CC           6       12.01   0.0000  A  3.39967e-01  3.59824e-01
sCC          6       12.01   0.0000  A  3.39967e-01  2.32238e-01
CK           6       12.01   0.0000  A  3.39967e-01  3.59824e-01
sCK          6       12.01   0.0000  A  3.39967e-01  2.32238e-01
CM           6       12.01   0.0000  A  3.39967e-01  3.59824e-01
sCM          6       12.01   0.0000  A  3.39967e-01  2.32238e-01
CN           6       12.01   0.0000  A  3.39967e-01  3.59824e-01
sCN          6       12.01   0.0000  A  3.39967e-01  2.32238e-01
CQ           6       12.01   0.0000  A  3.39967e-01  3.59824e-01
sCQ          6       12.01   0.0000  A  3.39967e-01  2.32238e-01
CR           6       12.01   0.0000  A  3.39967e-01  3.59824e-01
sCR          6       12.01   0.0000  A  3.39967e-01  2.32238e-01
CT           6       12.01   0.0000  A  3.39967e-01  4.57730e-01
sCT          6       12.01   0.0000  A  3.39967e-01  2.95429e-01
C1           6       12.01   0.0000  A  3.39967e-01  4.57730e-01
sC1          6       12.01   0.0000  A  3.39967e-01  2.95429e-01
C3           6       12.01   0.0000  A  3.39967e-01  4.57730e-01
sC3          6       12.01   0.0000  A  3.39967e-01  2.95429e-01
C4           6       12.01   0.0000  A  3.39967e-01  4.57730e-01
sC4          6       12.01   0.0000  A  3.39967e-01  2.95429e-01
C7           6       12.01   0.0000  A  3.39967e-01  4.57730e-01
sC7          6       12.01   0.0000  A  3.39967e-01  2.95429e-01
C8           6       12.01   0.0000  A  3.39967e-01  4.57730e-01
sC8          6       12.01   0.0000  A  3.39967e-01  2.95429e-01
C9           6       12.01   0.0000  A  3.39967e-01  4.57730e-01
sC9          6       12.01   0.0000  A  3.39967e-01  2.95429e-01
CV           6       12.01   0.0000  A  3.39967e-01  3.59824e-01
sCV          6       12.01   0.0000  A  3.39967e-01  2.32238e-01
CW           6       12.01   0.0000  A  3.39967e-01  3.59824e-01
sCW          6       12.01   0.0000  A  3.39967e-01  2.32238e-01
C*           6       12.01   0.0000  A  3.39967e-01  3.59824e-01
sC*          6       12.01   0.0000  A  3.39967e-01  2.32238e-01
C0           20      40.08   0.0000  A  3.05240e-01  1.92376e+00
sC0          20      40.08   0.0000  A  3.05240e-01  1.24164e+00
F            9       19.00   0.0000  A  3.11815e-01  2.55224e-01
sF           9       19.00   0.0000  A  3.11815e-01  1.64727e-01
H            1       1.008   0.0000  A  1.06908e-01  6.56888e-02
sH           1       1.008   0.0000  A  1.06908e-01  4.23970e-02
HB           1       1.008   0.0000  A  1.06908e-01  6.56888e-02
sHB          1       1.008   0.0000  A  1.06908e-01  4.23970e-02
HC           1       1.008   0.0000  A  2.64953e-01  6.56888e-02
sHC          1       1.008   0.0000  A  2.64953e-01  4.23970e-02
H1           1       1.008   0.0000  A  2.47135e-01  6.56888e-02
sH1          1       1.008   0.0000  A  2.47135e-01  4.23970e-02
H2           1       1.008   0.0000  A  2.29317e-01  6.56888e-02
sH2          1       1.008   0.0000  A  2.29317e-01  4.23970e-02
H3           1       1.008   0.0000  A  2.11499e-01  6.56888e-02
sH3          1       1.008   0.0000  A  2.11499e-01  4.23970e-02
HA           1       1.008   0.0000  A  2.59964e-01  6.27600e-02
sHA          1       1.008   0.0000  A  2.59964e-01  4.05067e-02
H4           1       1.008   0.0000  A  2.51055e-01  6.27600e-02
sH4          1       1.008   0.0000  A  2.51055e-01  4.05067e-02
H5           1       1.008   0.0000  A  2.42146e-01  6.27600e-02
sH5          1       1.008   0.0000  A  2.42146e-01  4.05067e-02
HO           1       1.008   0.0000  A  0.00000e+00  0.00000e+00
sHO          1       1.008   0.0000  A  0.00000e+00  0.00000e+00
HS           1       1.008   0.0000  A  1.06908e-01  6.56888e-02
sHS          1       1.008   0.0000  A  1.06908e-01  4.23970e-02
HW           1       1.008   0.0000  A  0.00000e+00  0.00000e+00
sHW          1       1.008   0.0000  A  0.00000e+00  0.00000e+00
HP           1       1.008   0.0000  A  1.95998e-01  6.56888e-02
sHP          1       1.008   0.0000  A  1.95998e-01  4.23970e-02
I            53      126.9   0.0000  A  4.18722e-01  1.67360e+00
sI           53      126.9   0.0000  A  4.18722e-01  1.08018e+00
Cl           17      35.45   0.0000  A  4.40104e-01  4.18400e-01
sCl          17      35.45   0.0000  A  4.40104e-01  2.70045e-01
Na           11      22.99   0.0000  A  3.32840e-01  1.15897e-02
sNa          11      22.99   0.0000  A  3.32840e-01  7.48025e-03
IB           0       131.0   0.0000  A  8.90899e-01  4.18400e-01
sIB          0       131.0   0.0000  A  8.90899e-01  2.70045e-01
MG           12     24.305   0.0000  A  1.41225e-01  3.74342e+00
sMG          12     24.305   0.0000  A  1.41225e-01  2.41609e+00
N            7       14.01   0.0000  A  3.25000e-01  7.11280e-01
sN           7       14.01   0.0000  A  3.25000e-01  4.59076e-01
NA           7       14.01   0.0000  A  3.25000e-01  7.11280e-01
sNA          7       14.01   0.0000  A  3.25000e-01  4.59076e-01
NB           7       14.01   0.0000  A  3.25000e-01  7.11280e-01
sNB          7       14.01   0.0000  A  3.25000e-01  4.59076e-01
NC           7       14.01   0.0000  A  3.25000e-01  7.11280e-01
sNC          7       14.01   0.0000  A  3.25000e-01  4.59076e-01
N2           7       14.01   0.0000  A  3.25000e-01  7.11280e-01
sN2          7       14.01   0.0000  A  3.25000e-01  4.59076e-01
N3           7       14.01   0.0000  A  3.25000e-01  7.11280e-01
sN3          7       14.01   0.0000  A  3.25000e-01  4.59076e-01
N*           7       14.01   0.0000  A  3.25000e-01  7.11280e-01
sN*          7       14.01   0.0000  A  3.25000e-01  4.59076e-01
O            8       16.00   0.0000  A  2.95992e-01  8.78640e-01
sO           8       16.00   0.0000  A  2.95992e-01  5.67094e-01
OB           8       16.00   0.0000  A  2.95992e-01  8.78640e-01
sOB          8       16.00   0.0000  A  2.95992e-01  5.67094e-01
OW           8       16.00   0.0000  A  3.15061e-01  6.36386e-01
sOW          8       16.00   0.0000  A  3.15061e-01  4.10738e-01
OH           8       16.00   0.0000  A  3.06647e-01  8.80314e-01
sOH          8       16.00   0.0000  A  3.06647e-01  5.68174e-01
O3           8       16.00   0.0000  A  3.06647e-01  8.80314e-01
sO3          8       16.00   0.0000  A  3.06647e-01  5.68174e-01
OS           8       16.00   0.0000  A  3.00001e-01  7.11280e-01
sOS          8       16.00   0.0000  A  3.00001e-01  4.59076e-01
O2           8       16.00   0.0000  A  2.95992e-01  8.78640e-01
sO2          8       16.00   0.0000  A  2.95992e-01  5.67094e-01
P            15      30.97   0.0000  A  3.74177e-01  8.36800e-01
sP           15      30.97   0.0000  A  3.74177e-01  5.40089e-01
S            16      32.06   0.0000  A  3.56359e-01  1.04600e+00
sS           16      32.06   0.0000  A  3.56359e-01  6.75112e-01
SH           16      32.06   0.0000  A  3.56359e-01  1.04600e+00
sSH          16      32.06   0.0000  A  3.56359e-01  6.75112e-01
CU           29      63.55   0.0000  A  3.39967e-01  3.59824e-01
sCU          29      63.55   0.0000  A  3.39967e-01  2.32238e-01
FE           26      55.00   0.0000  A  0.00000e+00  0.00000e+00
sFE          26      55.00   0.0000  A  0.00000e+00  0.00000e+00
K            19      39.10   0.0000  A  4.73602e-01  1.37235e-03
sK           19      39.10   0.0000  A  4.73602e-01  8.85745e-04
Rb           37      85.47   0.0000  A  5.26699e-01  7.11280e-04
sRb          37      85.47   0.0000  A  5.26699e-01  4.59076e-04
Cs           55     132.91   0.0000  A  6.04920e-01  3.37230e-04
sCs          55     132.91   0.0000  A  6.04920e-01  2.17656e-04
OW_spc       8      15.9994   0.0000  A  3.16557e-01  6.50629e-01
sOW_spc      8      15.9994   0.0000  A  3.16557e-01  4.19930e-01
HW_spc       1      1.0080   0.0000  A  0.00000e+00  0.00000e+00
sHW_spc      1      1.0080   0.0000  A  0.00000e+00  0.00000e+00
Li           3        6.94   0.0000  A  2.02590e-01  7.65672e-02
sLi          3        6.94   0.0000  A  2.02590e-01  4.94182e-02
Zn           30       65.4   0.0000  A  1.95998e-01  5.23000e-02
sZn          30       65.4   0.0000  A  1.95998e-01  3.37556e-02
HW_tip4pew   1       1.008   0.0000  A  0.00000e+00  0.00000e+00
sHW_tip4pew  1       1.008   0.0000  A  0.00000e+00  0.00000e+00
OW_tip4pew   8       16.00   0.0000  A  3.16435e-01  6.80946e-01
sOW_tip4pew  8       16.00   0.0000  A  3.16435e-01  4.39498e-01
HW_tip4p     1       1.008   0.0000  A  0.00000e+00  0.00000e+00
sHW_tip4p    1       1.008   0.0000  A  0.00000e+00  0.00000e+00
OW_tip4p     8       16.00   0.0000  A  3.15365e-01  6.48520e-01
sOW_tip4p    8       16.00   0.0000  A  3.15365e-01  4.18569e-01
HW_tip5p     1       1.008   0.0000  A  0.00000e+00  0.00000e+00
sHW_tip5p    1       1.008   0.0000  A  0.00000e+00  0.00000e+00
OW_tip5p     8       16.00   0.0000  A  3.12000e-01  6.69440e-01
sOW_tip5p    8       16.00   0.0000  A  3.12000e-01  4.32071e-01
HW_tip4pd    1       1.008   0.0000  A  0.00000e+00  0.00000e+00
sHW_tip4pd   1       1.008   0.0000  A  0.00000e+00  0.00000e+00
OW_tip4pd    8       16.00   0.0000  A  3.16500e-01  9.98989e-01
sOW_tip4pd   8       16.00   0.0000  A  3.16500e-01  6.44770e-01
MW           0      0.0000   0.0000  A  0.00000e+00  0.00000e+00
sMW          0      0.0000   0.0000  A  0.00000e+00  0.00000e+00
MCH3         0      0.0000   0.0000  A  0.00000e+00  0.00000e+00
sMCH3        0      0.0000   0.0000  A  0.00000e+00  0.00000e+00
MNH3         0      0.0000   0.0000  A  0.00000e+00  0.00000e+00
sMNH3        0      0.0000   0.0000  A  0.00000e+00  0.00000e+00
c3           c3     0.00000  0.00000  A  3.39967e-01  4.57730e-01
sc3          c3     0.00000  0.00000  A  3.39967e-01  7.06092e-02
hc           hc     0.00000  0.00000  A  2.64953e-01  6.56888e-02
shc          hc     0.00000  0.00000  A  2.64953e-01  1.01331e-02
c            c      0.00000  0.00000  A  3.39967e-01  3.59824e-01
sc           c      0.00000  0.00000  A  3.39967e-01  5.55063e-02
o            o      0.00000  0.00000  A  2.95992e-01  8.78640e-01
so           o      0.00000  0.00000  A  2.95992e-01  1.35539e-01
n            n      0.00000  0.00000  A  3.25000e-01  7.11280e-01
sn           n      0.00000  0.00000  A  3.25000e-01  1.09722e-01
h1           h1     0.00000  0.00000  A  2.47135e-01  6.56888e-02
sh1          h1     0.00000  0.00000  A  2.47135e-01  1.01331e-02
ca           ca     0.00000  0.00000  A  3.39967e-01  3.59824e-01
sca          ca     0.00000  0.00000  A  3.39967e-01  5.55063e-02
ha           ha     0.00000  0.00000  A  2.59964e-01  6.27600e-02
sha          ha     0.00000  0.00000  A  2.59964e-01  9.68133e-03
sy           sy     0.00000  0.00000  A  3.56359e-01  1.04600e+00
ssy          sy     0.00000  0.00000  A  3.56359e-01  1.61356e-01
n3           n3     0.00000  0.00000  A  3.25000e-01  7.11280e-01
sn3          n3     0.00000  0.00000  A  3.25000e-01  1.09722e-01
hx           hx     0.00000  0.00000  A  1.95998e-01  6.56888e-02
shx          hx     0.00000  0.00000  A  1.95998e-01  1.01331e-02
n4           n4     0.00000  0.00000  A  3.25000e-01  7.11280e-01
sn4          n4     0.00000  0.00000  A  3.25000e-01  1.09722e-01
hn           hn     0.00000  0.00000  A  1.06908e-01  6.56888e-02
shn          hn     0.00000  0.00000  A  1.06908e-01  1.01331e-02

[ nonbond_params ]
  OB   HB     1      0.150   1.2552
  sOB  sHB     1      0.150   0.8101
    1    0   1       0.0000   0.0000
    1    2   1       0.1700   0.0000
    1    4   1       0.1700   0.0000
    1    6   1       0.1700   0.0000
    1    8   1       0.1700   0.0000
    1   10   1       0.1700   0.0000
    1   12   1       0.1700   0.0000
    1   14   1       0.1700   0.0000
    1   16   1       0.1700   0.0000
    1   18   1       0.1700   0.0000
    1   20   1       0.1700   0.0000
    1   22   1       0.1700   0.0000
    1   24   1       0.1700   0.0000
    1   26   1       0.1700   0.0000
    1   28   1       0.1700   0.0000
    1   30   1       0.1700   0.0000
    1   32   1       0.1700   0.0000
    1   34   1       0.1700   0.0000
    1   36   1       0.1700   0.0000
    1   38   1       0.1700   0.0000
    1   40   1       0.1700   0.0000
    1   42   1       0.1700   0.0000
    1   44   1       0.1526   0.0000
    1   46   1       0.1559   0.0000
    1   48   1       0.0535   0.0000
    1   50   1       0.0535   0.0000
    1   52   1       0.1325   0.0000
    1   54   1       0.1236   0.0000
    1   56   1       0.1147   0.0000
    1   58   1       0.1057   0.0000
    1   60   1       0.1300   0.0000
    1   62   1       0.1255   0.0000
    1   64   1       0.1211   0.0000
    1   66   1       0.0000   0.0000
    1   68   1       0.0535   0.0000
    1   70   1       0.0000   0.0000
    1   72   1       0.0980   0.0000
    1   74   1       0.2094   0.0000
    1   76   1       0.2201   0.0000
    1   78   1       0.1664   0.0000
    1   80   1       0.4454   0.0000
    1   82   1       0.0706   0.0000
    1   84   1       0.1625   0.0000
    1   86   1       0.1625   0.0000
    1   88   1       0.1625   0.0000
    1   90   1       0.1625   0.0000
    1   92   1       0.1625   0.0000
    1   94   1       0.1625   0.0000
    1   96   1       0.1625   0.0000
    1   98   1       0.1480   0.0000
    1  100   1       0.1480   0.0000
    1  102   1       0.1575   0.0000
    1  104   1       0.1533   0.0000
    1  106   1       0.1533   0.0000
    1  108   1       0.1500   0.0000
    1  110   1       0.1480   0.0000
    1  112   1       0.1871   0.0000
    1  114   1       0.1782   0.0000
    1  116   1       0.1782   0.0000
    1  118   1       0.1700   0.0000
    1  120   1       0.0000   0.0000
    1  122   1       0.2368   0.0000
    1  124   1       0.2633   0.0000
    1  132   1       0.1013   0.0000
    1  134   1       0.0980   0.0000
    1  136   1       0.0000   0.0000
    1  138   1       0.1582   0.0000
    1  140   1       0.0000   0.0000
    1  142   1       0.1577   0.0000
    1  144   1       0.0000   0.0000
    1  146   1       0.1560   0.0000
    1  148   1       0.0000   0.0000
    1  150   1       0.1583   0.0000
    1  152   1       0.0000   0.0000
    1  154   1       0.0000   0.0000
    1  156   1       0.0000   0.0000
    1  158   1       0.1700   0.0000
    1  160   1       0.1325   0.0000
    1  162   1       0.1700   0.0000
    1  164   1       0.1480   0.0000
    1  166   1       0.1625   0.0000
    1  168   1       0.1236   0.0000
    1  170   1       0.1700   0.0000
    1  172   1       0.1300   0.0000
    1  176   1       0.1625   0.0000
    1  178   1       0.0980   0.0000
    1  180   1       0.1625   0.0000
    1  182   1       0.0535   0.0000
    3    0   1       0.1700   0.0000
    3    2   1       0.3400   0.2439
    3    4   1       0.3400   0.2439
    3    6   1       0.3400   0.2439
    3    8   1       0.3400   0.2439
    3   10   1       0.3400   0.2439
    3   12   1       0.3400   0.2439
    3   14   1       0.3400   0.2439
    3   16   1       0.3400   0.2439
    3   18   1       0.3400   0.2439
    3   20   1       0.3400   0.2439
    3   22   1       0.3400   0.2439
    3   24   1       0.3400   0.2750
    3   26   1       0.3400   0.2750
    3   28   1       0.3400   0.2750
    3   30   1       0.3400   0.2750
    3   32   1       0.3400   0.2750
    3   34   1       0.3400   0.2750
    3   36   1       0.3400   0.2750
    3   38   1       0.3400   0.2439
    3   40   1       0.3400   0.2439
    3   42   1       0.3400   0.2439
    3   44   1       0.3226   0.5638
    3   46   1       0.3259   0.2054
    3   48   1       0.2234   0.1042
    3   50   1       0.2234   0.1042
    3   52   1       0.3025   0.1042
    3   54   1       0.2936   0.1042
    3   56   1       0.2846   0.1042
    3   58   1       0.2757   0.1042
    3   60   1       0.3000   0.1018
    3   62   1       0.2955   0.1018
    3   64   1       0.2911   0.1018
    3   66   1       0.1700   0.0000
    3   68   1       0.2234   0.1042
    3   70   1       0.1700   0.0000
    3   72   1       0.2680   0.1042
    3   74   1       0.3793   0.5259
    3   76   1       0.3900   0.2630
    3   78   1       0.3364   0.0438
    3   80   1       0.6154   0.2630
    3   82   1       0.2406   0.7865
    3   84   1       0.3325   0.3428
    3   86   1       0.3325   0.3428
    3   88   1       0.3325   0.3428
    3   90   1       0.3325   0.3428
    3   92   1       0.3325   0.3428
    3   94   1       0.3325   0.3428
    3   96   1       0.3325   0.3428
    3   98   1       0.3180   0.3811
    3  100   1       0.3180   0.3811
    3  102   1       0.3275   0.3243
    3  104   1       0.3233   0.3814
    3  106   1       0.3233   0.3814
    3  108   1       0.3200   0.3428
    3  110   1       0.3180   0.3811
    3  112   1       0.3571   0.3719
    3  114   1       0.3482   0.4158
    3  116   1       0.3482   0.4158
    3  118   1       0.3400   0.2439
    3  120   1       0.1700   0.0000
    3  122   1       0.4068   0.0151
    3  124   1       0.4333   0.0108
    3  132   1       0.2713   0.1125
    3  134   1       0.2680   0.0930
    3  136   1       0.1700   0.0000
    3  138   1       0.3282   0.3355
    3  140   1       0.1700   0.0000
    3  142   1       0.3277   0.3274
    3  144   1       0.1700   0.0000
    3  146   1       0.3260   0.3326
    3  148   1       0.1700   0.0000
    3  150   1       0.3282   0.4063
    3  152   1       0.1700   0.0000
    3  154   1       0.1700   0.0000
    3  156   1       0.1700   0.0000
    3  158   1       0.3400   0.2750
    3  160   1       0.3025   0.1042
    3  162   1       0.3400   0.2439
    3  164   1       0.3180   0.3811
    3  166   1       0.3325   0.3428
    3  168   1       0.2936   0.1042
    3  170   1       0.3400   0.2439
    3  172   1       0.3000   0.1018
    3  176   1       0.3325   0.3428
    3  178   1       0.2680   0.1042
    3  180   1       0.3325   0.3428
    3  182   1       0.2234   0.1042
    5    0   1       0.1700   0.0000
    5    2   1       0.3400   0.2439
    5    4   1       0.3400   0.2439
    5    6   1       0.3400   0.2439
    5    8   1       0.3400   0.2439
    5   10   1       0.3400   0.2439
    5   12   1       0.3400   0.2439
    5   14   1       0.3400   0.2439
    5   16   1       0.3400   0.2439
    5   18   1       0.3400   0.2439
    5   20   1       0.3400   0.2439
    5   22   1       0.3400   0.2439
    5   24   1       0.3400   0.2750
    5   26   1       0.3400   0.2750
    5   28   1       0.3400   0.2750
    5   30   1       0.3400   0.2750
    5   32   1       0.3400   0.2750
    5   34   1       0.3400   0.2750
    5   36   1       0.3400   0.2750
    5   38   1       0.3400   0.2439
    5   40   1       0.3400   0.2439
    5   42   1       0.3400   0.2439
    5   44   1       0.3226   0.5638
    5   46   1       0.3259   0.2054
    5   48   1       0.2234   0.1042
    5   50   1       0.2234   0.1042
    5   52   1       0.3025   0.1042
    5   54   1       0.2936   0.1042
    5   56   1       0.2846   0.1042
    5   58   1       0.2757   0.1042
    5   60   1       0.3000   0.1018
    5   62   1       0.2955   0.1018
    5   64   1       0.2911   0.1018
    5   66   1       0.1700   0.0000
    5   68   1       0.2234   0.1042
    5   70   1       0.1700   0.0000
    5   72   1       0.2680   0.1042
    5   74   1       0.3793   0.5259
    5   76   1       0.3900   0.2630
    5   78   1       0.3364   0.0438
    5   80   1       0.6154   0.2630
    5   82   1       0.2406   0.7865
    5   84   1       0.3325   0.3428
    5   86   1       0.3325   0.3428
    5   88   1       0.3325   0.3428
    5   90   1       0.3325   0.3428
    5   92   1       0.3325   0.3428
    5   94   1       0.3325   0.3428
    5   96   1       0.3325   0.3428
    5   98   1       0.3180   0.3811
    5  100   1       0.3180   0.3811
    5  102   1       0.3275   0.3243
    5  104   1       0.3233   0.3814
    5  106   1       0.3233   0.3814
    5  108   1       0.3200   0.3428
    5  110   1       0.3180   0.3811
    5  112   1       0.3571   0.3719
    5  114   1       0.3482   0.4158
    5  116   1       0.3482   0.4158
    5  118   1       0.3400   0.2439
    5  120   1       0.1700   0.0000
    5  122   1       0.4068   0.0151
    5  124   1       0.4333   0.0108
    5  132   1       0.2713   0.1125
    5  134   1       0.2680   0.0930
    5  136   1       0.1700   0.0000
    5  138   1       0.3282   0.3355
    5  140   1       0.1700   0.0000
    5  142   1       0.3277   0.3274
    5  144   1       0.1700   0.0000
    5  146   1       0.3260   0.3326
    5  148   1       0.1700   0.0000
    5  150   1       0.3282   0.4063
    5  152   1       0.1700   0.0000
    5  154   1       0.1700   0.0000
    5  156   1       0.1700   0.0000
    5  158   1       0.3400   0.2750
    5  160   1       0.3025   0.1042
    5  162   1       0.3400   0.2439
    5  164   1       0.3180   0.3811
    5  166   1       0.3325   0.3428
    5  168   1       0.2936   0.1042
    5  170   1       0.3400   0.2439
    5  172   1       0.3000   0.1018
    5  176   1       0.3325   0.3428
    5  178   1       0.2680   0.1042
    5  180   1       0.3325   0.3428
    5  182   1       0.2234   0.1042
    7    0   1       0.1700   0.0000
    7    2   1       0.3400   0.2439
    7    4   1       0.3400   0.2439
    7    6   1       0.3400   0.2439
    7    8   1       0.3400   0.2439
    7   10   1       0.3400   0.2439
    7   12   1       0.3400   0.2439
    7   14   1       0.3400   0.2439
    7   16   1       0.3400   0.2439
    7   18   1       0.3400   0.2439
    7   20   1       0.3400   0.2439
    7   22   1       0.3400   0.2439
    7   24   1       0.3400   0.2750
    7   26   1       0.3400   0.2750
    7   28   1       0.3400   0.2750
    7   30   1       0.3400   0.2750
    7   32   1       0.3400   0.2750
    7   34   1       0.3400   0.2750
    7   36   1       0.3400   0.2750
    7   38   1       0.3400   0.2439
    7   40   1       0.3400   0.2439
    7   42   1       0.3400   0.2439
    7   44   1       0.3226   0.5638
    7   46   1       0.3259   0.2054
    7   48   1       0.2234   0.1042
    7   50   1       0.2234   0.1042
    7   52   1       0.3025   0.1042
    7   54   1       0.2936   0.1042
    7   56   1       0.2846   0.1042
    7   58   1       0.2757   0.1042
    7   60   1       0.3000   0.1018
    7   62   1       0.2955   0.1018
    7   64   1       0.2911   0.1018
    7   66   1       0.1700   0.0000
    7   68   1       0.2234   0.1042
    7   70   1       0.1700   0.0000
    7   72   1       0.2680   0.1042
    7   74   1       0.3793   0.5259
    7   76   1       0.3900   0.2630
    7   78   1       0.3364   0.0438
    7   80   1       0.6154   0.2630
    7   82   1       0.2406   0.7865
    7   84   1       0.3325   0.3428
    7   86   1       0.3325   0.3428
    7   88   1       0.3325   0.3428
    7   90   1       0.3325   0.3428
    7   92   1       0.3325   0.3428
    7   94   1       0.3325   0.3428
    7   96   1       0.3325   0.3428
    7   98   1       0.3180   0.3811
    7  100   1       0.3180   0.3811
    7  102   1       0.3275   0.3243
    7  104   1       0.3233   0.3814
    7  106   1       0.3233   0.3814
    7  108   1       0.3200   0.3428
    7  110   1       0.3180   0.3811
    7  112   1       0.3571   0.3719
    7  114   1       0.3482   0.4158
    7  116   1       0.3482   0.4158
    7  118   1       0.3400   0.2439
    7  120   1       0.1700   0.0000
    7  122   1       0.4068   0.0151
    7  124   1       0.4333   0.0108
    7  132   1       0.2713   0.1125
    7  134   1       0.2680   0.0930
    7  136   1       0.1700   0.0000
    7  138   1       0.3282   0.3355
    7  140   1       0.1700   0.0000
    7  142   1       0.3277   0.3274
    7  144   1       0.1700   0.0000
    7  146   1       0.3260   0.3326
    7  148   1       0.1700   0.0000
    7  150   1       0.3282   0.4063
    7  152   1       0.1700   0.0000
    7  154   1       0.1700   0.0000
    7  156   1       0.1700   0.0000
    7  158   1       0.3400   0.2750
    7  160   1       0.3025   0.1042
    7  162   1       0.3400   0.2439
    7  164   1       0.3180   0.3811
    7  166   1       0.3325   0.3428
    7  168   1       0.2936   0.1042
    7  170   1       0.3400   0.2439
    7  172   1       0.3000   0.1018
    7  176   1       0.3325   0.3428
    7  178   1       0.2680   0.1042
    7  180   1       0.3325   0.3428
    7  182   1       0.2234   0.1042
    9    0   1       0.1700   0.0000
    9    2   1       0.3400   0.2439
    9    4   1       0.3400   0.2439
    9    6   1       0.3400   0.2439
    9    8   1       0.3400   0.2439
    9   10   1       0.3400   0.2439
    9   12   1       0.3400   0.2439
    9   14   1       0.3400   0.2439
    9   16   1       0.3400   0.2439
    9   18   1       0.3400   0.2439
    9   20   1       0.3400   0.2439
    9   22   1       0.3400   0.2439
    9   24   1       0.3400   0.2750
    9   26   1       0.3400   0.2750
    9   28   1       0.3400   0.2750
    9   30   1       0.3400   0.2750
    9   32   1       0.3400   0.2750
    9   34   1       0.3400   0.2750
    9   36   1       0.3400   0.2750
    9   38   1       0.3400   0.2439
    9   40   1       0.3400   0.2439
    9   42   1       0.3400   0.2439
    9   44   1       0.3226   0.5638
    9   46   1       0.3259   0.2054
    9   48   1       0.2234   0.1042
    9   50   1       0.2234   0.1042
    9   52   1       0.3025   0.1042
    9   54   1       0.2936   0.1042
    9   56   1       0.2846   0.1042
    9   58   1       0.2757   0.1042
    9   60   1       0.3000   0.1018
    9   62   1       0.2955   0.1018
    9   64   1       0.2911   0.1018
    9   66   1       0.1700   0.0000
    9   68   1       0.2234   0.1042
    9   70   1       0.1700   0.0000
    9   72   1       0.2680   0.1042
    9   74   1       0.3793   0.5259
    9   76   1       0.3900   0.2630
    9   78   1       0.3364   0.0438
    9   80   1       0.6154   0.2630
    9   82   1       0.2406   0.7865
    9   84   1       0.3325   0.3428
    9   86   1       0.3325   0.3428
    9   88   1       0.3325   0.3428
    9   90   1       0.3325   0.3428
    9   92   1       0.3325   0.3428
    9   94   1       0.3325   0.3428
    9   96   1       0.3325   0.3428
    9   98   1       0.3180   0.3811
    9  100   1       0.3180   0.3811
    9  102   1       0.3275   0.3243
    9  104   1       0.3233   0.3814
    9  106   1       0.3233   0.3814
    9  108   1       0.3200   0.3428
    9  110   1       0.3180   0.3811
    9  112   1       0.3571   0.3719
    9  114   1       0.3482   0.4158
    9  116   1       0.3482   0.4158
    9  118   1       0.3400   0.2439
    9  120   1       0.1700   0.0000
    9  122   1       0.4068   0.0151
    9  124   1       0.4333   0.0108
    9  132   1       0.2713   0.1125
    9  134   1       0.2680   0.0930
    9  136   1       0.1700   0.0000
    9  138   1       0.3282   0.3355
    9  140   1       0.1700   0.0000
    9  142   1       0.3277   0.3274
    9  144   1       0.1700   0.0000
    9  146   1       0.3260   0.3326
    9  148   1       0.1700   0.0000
    9  150   1       0.3282   0.4063
    9  152   1       0.1700   0.0000
    9  154   1       0.1700   0.0000
    9  156   1       0.1700   0.0000
    9  158   1       0.3400   0.2750
    9  160   1       0.3025   0.1042
    9  162   1       0.3400   0.2439
    9  164   1       0.3180   0.3811
    9  166   1       0.3325   0.3428
    9  168   1       0.2936   0.1042
    9  170   1       0.3400   0.2439
    9  172   1       0.3000   0.1018
    9  176   1       0.3325   0.3428
    9  178   1       0.2680   0.1042
    9  180   1       0.3325   0.3428
    9  182   1       0.2234   0.1042
   11    0   1       0.1700   0.0000
   11    2   1       0.3400   0.2439
   11    4   1       0.3400   0.2439
   11    6   1       0.3400   0.2439
   11    8   1       0.3400   0.2439
   11   10   1       0.3400   0.2439
   11   12   1       0.3400   0.2439
   11   14   1       0.3400   0.2439
   11   16   1       0.3400   0.2439
   11   18   1       0.3400   0.2439
   11   20   1       0.3400   0.2439
   11   22   1       0.3400   0.2439
   11   24   1       0.3400   0.2750
   11   26   1       0.3400   0.2750
   11   28   1       0.3400   0.2750
   11   30   1       0.3400   0.2750
   11   32   1       0.3400   0.2750
   11   34   1       0.3400   0.2750
   11   36   1       0.3400   0.2750
   11   38   1       0.3400   0.2439
   11   40   1       0.3400   0.2439
   11   42   1       0.3400   0.2439
   11   44   1       0.3226   0.5638
   11   46   1       0.3259   0.2054
   11   48   1       0.2234   0.1042
   11   50   1       0.2234   0.1042
   11   52   1       0.3025   0.1042
   11   54   1       0.2936   0.1042
   11   56   1       0.2846   0.1042
   11   58   1       0.2757   0.1042
   11   60   1       0.3000   0.1018
   11   62   1       0.2955   0.1018
   11   64   1       0.2911   0.1018
   11   66   1       0.1700   0.0000
   11   68   1       0.2234   0.1042
   11   70   1       0.1700   0.0000
   11   72   1       0.2680   0.1042
   11   74   1       0.3793   0.5259
   11   76   1       0.3900   0.2630
   11   78   1       0.3364   0.0438
   11   80   1       0.6154   0.2630
   11   82   1       0.2406   0.7865
   11   84   1       0.3325   0.3428
   11   86   1       0.3325   0.3428
   11   88   1       0.3325   0.3428
   11   90   1       0.3325   0.3428
   11   92   1       0.3325   0.3428
   11   94   1       0.3325   0.3428
   11   96   1       0.3325   0.3428
   11   98   1       0.3180   0.3811
   11  100   1       0.3180   0.3811
   11  102   1       0.3275   0.3243
   11  104   1       0.3233   0.3814
   11  106   1       0.3233   0.3814
   11  108   1       0.3200   0.3428
   11  110   1       0.3180   0.3811
   11  112   1       0.3571   0.3719
   11  114   1       0.3482   0.4158
   11  116   1       0.3482   0.4158
   11  118   1       0.3400   0.2439
   11  120   1       0.1700   0.0000
   11  122   1       0.4068   0.0151
   11  124   1       0.4333   0.0108
   11  132   1       0.2713   0.1125
   11  134   1       0.2680   0.0930
   11  136   1       0.1700   0.0000
   11  138   1       0.3282   0.3355
   11  140   1       0.1700   0.0000
   11  142   1       0.3277   0.3274
   11  144   1       0.1700   0.0000
   11  146   1       0.3260   0.3326
   11  148   1       0.1700   0.0000
   11  150   1       0.3282   0.4063
   11  152   1       0.1700   0.0000
   11  154   1       0.1700   0.0000
   11  156   1       0.1700   0.0000
   11  158   1       0.3400   0.2750
   11  160   1       0.3025   0.1042
   11  162   1       0.3400   0.2439
   11  164   1       0.3180   0.3811
   11  166   1       0.3325   0.3428
   11  168   1       0.2936   0.1042
   11  170   1       0.3400   0.2439
   11  172   1       0.3000   0.1018
   11  176   1       0.3325   0.3428
   11  178   1       0.2680   0.1042
   11  180   1       0.3325   0.3428
   11  182   1       0.2234   0.1042
   13    0   1       0.1700   0.0000
   13    2   1       0.3400   0.2439
   13    4   1       0.3400   0.2439
   13    6   1       0.3400   0.2439
   13    8   1       0.3400   0.2439
   13   10   1       0.3400   0.2439
   13   12   1       0.3400   0.2439
   13   14   1       0.3400   0.2439
   13   16   1       0.3400   0.2439
   13   18   1       0.3400   0.2439
   13   20   1       0.3400   0.2439
   13   22   1       0.3400   0.2439
   13   24   1       0.3400   0.2750
   13   26   1       0.3400   0.2750
   13   28   1       0.3400   0.2750
   13   30   1       0.3400   0.2750
   13   32   1       0.3400   0.2750
   13   34   1       0.3400   0.2750
   13   36   1       0.3400   0.2750
   13   38   1       0.3400   0.2439
   13   40   1       0.3400   0.2439
   13   42   1       0.3400   0.2439
   13   44   1       0.3226   0.5638
   13   46   1       0.3259   0.2054
   13   48   1       0.2234   0.1042
   13   50   1       0.2234   0.1042
   13   52   1       0.3025   0.1042
   13   54   1       0.2936   0.1042
   13   56   1       0.2846   0.1042
   13   58   1       0.2757   0.1042
   13   60   1       0.3000   0.1018
   13   62   1       0.2955   0.1018
   13   64   1       0.2911   0.1018
   13   66   1       0.1700   0.0000
   13   68   1       0.2234   0.1042
   13   70   1       0.1700   0.0000
   13   72   1       0.2680   0.1042
   13   74   1       0.3793   0.5259
   13   76   1       0.3900   0.2630
   13   78   1       0.3364   0.0438
   13   80   1       0.6154   0.2630
   13   82   1       0.2406   0.7865
   13   84   1       0.3325   0.3428
   13   86   1       0.3325   0.3428
   13   88   1       0.3325   0.3428
   13   90   1       0.3325   0.3428
   13   92   1       0.3325   0.3428
   13   94   1       0.3325   0.3428
   13   96   1       0.3325   0.3428
   13   98   1       0.3180   0.3811
   13  100   1       0.3180   0.3811
   13  102   1       0.3275   0.3243
   13  104   1       0.3233   0.3814
   13  106   1       0.3233   0.3814
   13  108   1       0.3200   0.3428
   13  110   1       0.3180   0.3811
   13  112   1       0.3571   0.3719
   13  114   1       0.3482   0.4158
   13  116   1       0.3482   0.4158
   13  118   1       0.3400   0.2439
   13  120   1       0.1700   0.0000
   13  122   1       0.4068   0.0151
   13  124   1       0.4333   0.0108
   13  132   1       0.2713   0.1125
   13  134   1       0.2680   0.0930
   13  136   1       0.1700   0.0000
   13  138   1       0.3282   0.3355
   13  140   1       0.1700   0.0000
   13  142   1       0.3277   0.3274
   13  144   1       0.1700   0.0000
   13  146   1       0.3260   0.3326
   13  148   1       0.1700   0.0000
   13  150   1       0.3282   0.4063
   13  152   1       0.1700   0.0000
   13  154   1       0.1700   0.0000
   13  156   1       0.1700   0.0000
   13  158   1       0.3400   0.2750
   13  160   1       0.3025   0.1042
   13  162   1       0.3400   0.2439
   13  164   1       0.3180   0.3811
   13  166   1       0.3325   0.3428
   13  168   1       0.2936   0.1042
   13  170   1       0.3400   0.2439
   13  172   1       0.3000   0.1018
   13  176   1       0.3325   0.3428
   13  178   1       0.2680   0.1042
   13  180   1       0.3325   0.3428
   13  182   1       0.2234   0.1042
   15    0   1       0.1700   0.0000
   15    2   1       0.3400   0.2439
   15    4   1       0.3400   0.2439
   15    6   1       0.3400   0.2439
   15    8   1       0.3400   0.2439
   15   10   1       0.3400   0.2439
   15   12   1       0.3400   0.2439
   15   14   1       0.3400   0.2439
   15   16   1       0.3400   0.2439
   15   18   1       0.3400   0.2439
   15   20   1       0.3400   0.2439
   15   22   1       0.3400   0.2439
   15   24   1       0.3400   0.2750
   15   26   1       0.3400   0.2750
   15   28   1       0.3400   0.2750
   15   30   1       0.3400   0.2750
   15   32   1       0.3400   0.2750
   15   34   1       0.3400   0.2750
   15   36   1       0.3400   0.2750
   15   38   1       0.3400   0.2439
   15   40   1       0.3400   0.2439
   15   42   1       0.3400   0.2439
   15   44   1       0.3226   0.5638
   15   46   1       0.3259   0.2054
   15   48   1       0.2234   0.1042
   15   50   1       0.2234   0.1042
   15   52   1       0.3025   0.1042
   15   54   1       0.2936   0.1042
   15   56   1       0.2846   0.1042
   15   58   1       0.2757   0.1042
   15   60   1       0.3000   0.1018
   15   62   1       0.2955   0.1018
   15   64   1       0.2911   0.1018
   15   66   1       0.1700   0.0000
   15   68   1       0.2234   0.1042
   15   70   1       0.1700   0.0000
   15   72   1       0.2680   0.1042
   15   74   1       0.3793   0.5259
   15   76   1       0.3900   0.2630
   15   78   1       0.3364   0.0438
   15   80   1       0.6154   0.2630
   15   82   1       0.2406   0.7865
   15   84   1       0.3325   0.3428
   15   86   1       0.3325   0.3428
   15   88   1       0.3325   0.3428
   15   90   1       0.3325   0.3428
   15   92   1       0.3325   0.3428
   15   94   1       0.3325   0.3428
   15   96   1       0.3325   0.3428
   15   98   1       0.3180   0.3811
   15  100   1       0.3180   0.3811
   15  102   1       0.3275   0.3243
   15  104   1       0.3233   0.3814
   15  106   1       0.3233   0.3814
   15  108   1       0.3200   0.3428
   15  110   1       0.3180   0.3811
   15  112   1       0.3571   0.3719
   15  114   1       0.3482   0.4158
   15  116   1       0.3482   0.4158
   15  118   1       0.3400   0.2439
   15  120   1       0.1700   0.0000
   15  122   1       0.4068   0.0151
   15  124   1       0.4333   0.0108
   15  132   1       0.2713   0.1125
   15  134   1       0.2680   0.0930
   15  136   1       0.1700   0.0000
   15  138   1       0.3282   0.3355
   15  140   1       0.1700   0.0000
   15  142   1       0.3277   0.3274
   15  144   1       0.1700   0.0000
   15  146   1       0.3260   0.3326
   15  148   1       0.1700   0.0000
   15  150   1       0.3282   0.4063
   15  152   1       0.1700   0.0000
   15  154   1       0.1700   0.0000
   15  156   1       0.1700   0.0000
   15  158   1       0.3400   0.2750
   15  160   1       0.3025   0.1042
   15  162   1       0.3400   0.2439
   15  164   1       0.3180   0.3811
   15  166   1       0.3325   0.3428
   15  168   1       0.2936   0.1042
   15  170   1       0.3400   0.2439
   15  172   1       0.3000   0.1018
   15  176   1       0.3325   0.3428
   15  178   1       0.2680   0.1042
   15  180   1       0.3325   0.3428
   15  182   1       0.2234   0.1042
   17    0   1       0.1700   0.0000
   17    2   1       0.3400   0.2439
   17    4   1       0.3400   0.2439
   17    6   1       0.3400   0.2439
   17    8   1       0.3400   0.2439
   17   10   1       0.3400   0.2439
   17   12   1       0.3400   0.2439
   17   14   1       0.3400   0.2439
   17   16   1       0.3400   0.2439
   17   18   1       0.3400   0.2439
   17   20   1       0.3400   0.2439
   17   22   1       0.3400   0.2439
   17   24   1       0.3400   0.2750
   17   26   1       0.3400   0.2750
   17   28   1       0.3400   0.2750
   17   30   1       0.3400   0.2750
   17   32   1       0.3400   0.2750
   17   34   1       0.3400   0.2750
   17   36   1       0.3400   0.2750
   17   38   1       0.3400   0.2439
   17   40   1       0.3400   0.2439
   17   42   1       0.3400   0.2439
   17   44   1       0.3226   0.5638
   17   46   1       0.3259   0.2054
   17   48   1       0.2234   0.1042
   17   50   1       0.2234   0.1042
   17   52   1       0.3025   0.1042
   17   54   1       0.2936   0.1042
   17   56   1       0.2846   0.1042
   17   58   1       0.2757   0.1042
   17   60   1       0.3000   0.1018
   17   62   1       0.2955   0.1018
   17   64   1       0.2911   0.1018
   17   66   1       0.1700   0.0000
   17   68   1       0.2234   0.1042
   17   70   1       0.1700   0.0000
   17   72   1       0.2680   0.1042
   17   74   1       0.3793   0.5259
   17   76   1       0.3900   0.2630
   17   78   1       0.3364   0.0438
   17   80   1       0.6154   0.2630
   17   82   1       0.2406   0.7865
   17   84   1       0.3325   0.3428
   17   86   1       0.3325   0.3428
   17   88   1       0.3325   0.3428
   17   90   1       0.3325   0.3428
   17   92   1       0.3325   0.3428
   17   94   1       0.3325   0.3428
   17   96   1       0.3325   0.3428
   17   98   1       0.3180   0.3811
   17  100   1       0.3180   0.3811
   17  102   1       0.3275   0.3243
   17  104   1       0.3233   0.3814
   17  106   1       0.3233   0.3814
   17  108   1       0.3200   0.3428
   17  110   1       0.3180   0.3811
   17  112   1       0.3571   0.3719
   17  114   1       0.3482   0.4158
   17  116   1       0.3482   0.4158
   17  118   1       0.3400   0.2439
   17  120   1       0.1700   0.0000
   17  122   1       0.4068   0.0151
   17  124   1       0.4333   0.0108
   17  132   1       0.2713   0.1125
   17  134   1       0.2680   0.0930
   17  136   1       0.1700   0.0000
   17  138   1       0.3282   0.3355
   17  140   1       0.1700   0.0000
   17  142   1       0.3277   0.3274
   17  144   1       0.1700   0.0000
   17  146   1       0.3260   0.3326
   17  148   1       0.1700   0.0000
   17  150   1       0.3282   0.4063
   17  152   1       0.1700   0.0000
   17  154   1       0.1700   0.0000
   17  156   1       0.1700   0.0000
   17  158   1       0.3400   0.2750
   17  160   1       0.3025   0.1042
   17  162   1       0.3400   0.2439
   17  164   1       0.3180   0.3811
   17  166   1       0.3325   0.3428
   17  168   1       0.2936   0.1042
   17  170   1       0.3400   0.2439
   17  172   1       0.3000   0.1018
   17  176   1       0.3325   0.3428
   17  178   1       0.2680   0.1042
   17  180   1       0.3325   0.3428
   17  182   1       0.2234   0.1042
   19    0   1       0.1700   0.0000
   19    2   1       0.3400   0.2439
   19    4   1       0.3400   0.2439
   19    6   1       0.3400   0.2439
   19    8   1       0.3400   0.2439
   19   10   1       0.3400   0.2439
   19   12   1       0.3400   0.2439
   19   14   1       0.3400   0.2439
   19   16   1       0.3400   0.2439
   19   18   1       0.3400   0.2439
   19   20   1       0.3400   0.2439
   19   22   1       0.3400   0.2439
   19   24   1       0.3400   0.2750
   19   26   1       0.3400   0.2750
   19   28   1       0.3400   0.2750
   19   30   1       0.3400   0.2750
   19   32   1       0.3400   0.2750
   19   34   1       0.3400   0.2750
   19   36   1       0.3400   0.2750
   19   38   1       0.3400   0.2439
   19   40   1       0.3400   0.2439
   19   42   1       0.3400   0.2439
   19   44   1       0.3226   0.5638
   19   46   1       0.3259   0.2054
   19   48   1       0.2234   0.1042
   19   50   1       0.2234   0.1042
   19   52   1       0.3025   0.1042
   19   54   1       0.2936   0.1042
   19   56   1       0.2846   0.1042
   19   58   1       0.2757   0.1042
   19   60   1       0.3000   0.1018
   19   62   1       0.2955   0.1018
   19   64   1       0.2911   0.1018
   19   66   1       0.1700   0.0000
   19   68   1       0.2234   0.1042
   19   70   1       0.1700   0.0000
   19   72   1       0.2680   0.1042
   19   74   1       0.3793   0.5259
   19   76   1       0.3900   0.2630
   19   78   1       0.3364   0.0438
   19   80   1       0.6154   0.2630
   19   82   1       0.2406   0.7865
   19   84   1       0.3325   0.3428
   19   86   1       0.3325   0.3428
   19   88   1       0.3325   0.3428
   19   90   1       0.3325   0.3428
   19   92   1       0.3325   0.3428
   19   94   1       0.3325   0.3428
   19   96   1       0.3325   0.3428
   19   98   1       0.3180   0.3811
   19  100   1       0.3180   0.3811
   19  102   1       0.3275   0.3243
   19  104   1       0.3233   0.3814
   19  106   1       0.3233   0.3814
   19  108   1       0.3200   0.3428
   19  110   1       0.3180   0.3811
   19  112   1       0.3571   0.3719
   19  114   1       0.3482   0.4158
   19  116   1       0.3482   0.4158
   19  118   1       0.3400   0.2439
   19  120   1       0.1700   0.0000
   19  122   1       0.4068   0.0151
   19  124   1       0.4333   0.0108
   19  132   1       0.2713   0.1125
   19  134   1       0.2680   0.0930
   19  136   1       0.1700   0.0000
   19  138   1       0.3282   0.3355
   19  140   1       0.1700   0.0000
   19  142   1       0.3277   0.3274
   19  144   1       0.1700   0.0000
   19  146   1       0.3260   0.3326
   19  148   1       0.1700   0.0000
   19  150   1       0.3282   0.4063
   19  152   1       0.1700   0.0000
   19  154   1       0.1700   0.0000
   19  156   1       0.1700   0.0000
   19  158   1       0.3400   0.2750
   19  160   1       0.3025   0.1042
   19  162   1       0.3400   0.2439
   19  164   1       0.3180   0.3811
   19  166   1       0.3325   0.3428
   19  168   1       0.2936   0.1042
   19  170   1       0.3400   0.2439
   19  172   1       0.3000   0.1018
   19  176   1       0.3325   0.3428
   19  178   1       0.2680   0.1042
   19  180   1       0.3325   0.3428
   19  182   1       0.2234   0.1042
   21    0   1       0.1700   0.0000
   21    2   1       0.3400   0.2439
   21    4   1       0.3400   0.2439
   21    6   1       0.3400   0.2439
   21    8   1       0.3400   0.2439
   21   10   1       0.3400   0.2439
   21   12   1       0.3400   0.2439
   21   14   1       0.3400   0.2439
   21   16   1       0.3400   0.2439
   21   18   1       0.3400   0.2439
   21   20   1       0.3400   0.2439
   21   22   1       0.3400   0.2439
   21   24   1       0.3400   0.2750
   21   26   1       0.3400   0.2750
   21   28   1       0.3400   0.2750
   21   30   1       0.3400   0.2750
   21   32   1       0.3400   0.2750
   21   34   1       0.3400   0.2750
   21   36   1       0.3400   0.2750
   21   38   1       0.3400   0.2439
   21   40   1       0.3400   0.2439
   21   42   1       0.3400   0.2439
   21   44   1       0.3226   0.5638
   21   46   1       0.3259   0.2054
   21   48   1       0.2234   0.1042
   21   50   1       0.2234   0.1042
   21   52   1       0.3025   0.1042
   21   54   1       0.2936   0.1042
   21   56   1       0.2846   0.1042
   21   58   1       0.2757   0.1042
   21   60   1       0.3000   0.1018
   21   62   1       0.2955   0.1018
   21   64   1       0.2911   0.1018
   21   66   1       0.1700   0.0000
   21   68   1       0.2234   0.1042
   21   70   1       0.1700   0.0000
   21   72   1       0.2680   0.1042
   21   74   1       0.3793   0.5259
   21   76   1       0.3900   0.2630
   21   78   1       0.3364   0.0438
   21   80   1       0.6154   0.2630
   21   82   1       0.2406   0.7865
   21   84   1       0.3325   0.3428
   21   86   1       0.3325   0.3428
   21   88   1       0.3325   0.3428
   21   90   1       0.3325   0.3428
   21   92   1       0.3325   0.3428
   21   94   1       0.3325   0.3428
   21   96   1       0.3325   0.3428
   21   98   1       0.3180   0.3811
   21  100   1       0.3180   0.3811
   21  102   1       0.3275   0.3243
   21  104   1       0.3233   0.3814
   21  106   1       0.3233   0.3814
   21  108   1       0.3200   0.3428
   21  110   1       0.3180   0.3811
   21  112   1       0.3571   0.3719
   21  114   1       0.3482   0.4158
   21  116   1       0.3482   0.4158
   21  118   1       0.3400   0.2439
   21  120   1       0.1700   0.0000
   21  122   1       0.4068   0.0151
   21  124   1       0.4333   0.0108
   21  132   1       0.2713   0.1125
   21  134   1       0.2680   0.0930
   21  136   1       0.1700   0.0000
   21  138   1       0.3282   0.3355
   21  140   1       0.1700   0.0000
   21  142   1       0.3277   0.3274
   21  144   1       0.1700   0.0000
   21  146   1       0.3260   0.3326
   21  148   1       0.1700   0.0000
   21  150   1       0.3282   0.4063
   21  152   1       0.1700   0.0000
   21  154   1       0.1700   0.0000
   21  156   1       0.1700   0.0000
   21  158   1       0.3400   0.2750
   21  160   1       0.3025   0.1042
   21  162   1       0.3400   0.2439
   21  164   1       0.3180   0.3811
   21  166   1       0.3325   0.3428
   21  168   1       0.2936   0.1042
   21  170   1       0.3400   0.2439
   21  172   1       0.3000   0.1018
   21  176   1       0.3325   0.3428
   21  178   1       0.2680   0.1042
   21  180   1       0.3325   0.3428
   21  182   1       0.2234   0.1042
   23    0   1       0.1700   0.0000
   23    2   1       0.3400   0.2439
   23    4   1       0.3400   0.2439
   23    6   1       0.3400   0.2439
   23    8   1       0.3400   0.2439
   23   10   1       0.3400   0.2439
   23   12   1       0.3400   0.2439
   23   14   1       0.3400   0.2439
   23   16   1       0.3400   0.2439
   23   18   1       0.3400   0.2439
   23   20   1       0.3400   0.2439
   23   22   1       0.3400   0.2439
   23   24   1       0.3400   0.2750
   23   26   1       0.3400   0.2750
   23   28   1       0.3400   0.2750
   23   30   1       0.3400   0.2750
   23   32   1       0.3400   0.2750
   23   34   1       0.3400   0.2750
   23   36   1       0.3400   0.2750
   23   38   1       0.3400   0.2439
   23   40   1       0.3400   0.2439
   23   42   1       0.3400   0.2439
   23   44   1       0.3226   0.5638
   23   46   1       0.3259   0.2054
   23   48   1       0.2234   0.1042
   23   50   1       0.2234   0.1042
   23   52   1       0.3025   0.1042
   23   54   1       0.2936   0.1042
   23   56   1       0.2846   0.1042
   23   58   1       0.2757   0.1042
   23   60   1       0.3000   0.1018
   23   62   1       0.2955   0.1018
   23   64   1       0.2911   0.1018
   23   66   1       0.1700   0.0000
   23   68   1       0.2234   0.1042
   23   70   1       0.1700   0.0000
   23   72   1       0.2680   0.1042
   23   74   1       0.3793   0.5259
   23   76   1       0.3900   0.2630
   23   78   1       0.3364   0.0438
   23   80   1       0.6154   0.2630
   23   82   1       0.2406   0.7865
   23   84   1       0.3325   0.3428
   23   86   1       0.3325   0.3428
   23   88   1       0.3325   0.3428
   23   90   1       0.3325   0.3428
   23   92   1       0.3325   0.3428
   23   94   1       0.3325   0.3428
   23   96   1       0.3325   0.3428
   23   98   1       0.3180   0.3811
   23  100   1       0.3180   0.3811
   23  102   1       0.3275   0.3243
   23  104   1       0.3233   0.3814
   23  106   1       0.3233   0.3814
   23  108   1       0.3200   0.3428
   23  110   1       0.3180   0.3811
   23  112   1       0.3571   0.3719
   23  114   1       0.3482   0.4158
   23  116   1       0.3482   0.4158
   23  118   1       0.3400   0.2439
   23  120   1       0.1700   0.0000
   23  122   1       0.4068   0.0151
   23  124   1       0.4333   0.0108
   23  132   1       0.2713   0.1125
   23  134   1       0.2680   0.0930
   23  136   1       0.1700   0.0000
   23  138   1       0.3282   0.3355
   23  140   1       0.1700   0.0000
   23  142   1       0.3277   0.3274
   23  144   1       0.1700   0.0000
   23  146   1       0.3260   0.3326
   23  148   1       0.1700   0.0000
   23  150   1       0.3282   0.4063
   23  152   1       0.1700   0.0000
   23  154   1       0.1700   0.0000
   23  156   1       0.1700   0.0000
   23  158   1       0.3400   0.2750
   23  160   1       0.3025   0.1042
   23  162   1       0.3400   0.2439
   23  164   1       0.3180   0.3811
   23  166   1       0.3325   0.3428
   23  168   1       0.2936   0.1042
   23  170   1       0.3400   0.2439
   23  172   1       0.3000   0.1018
   23  176   1       0.3325   0.3428
   23  178   1       0.2680   0.1042
   23  180   1       0.3325   0.3428
   23  182   1       0.2234   0.1042
   25    0   1       0.1700   0.0000
   25    2   1       0.3400   0.2750
   25    4   1       0.3400   0.2750
   25    6   1       0.3400   0.2750
   25    8   1       0.3400   0.2750
   25   10   1       0.3400   0.2750
   25   12   1       0.3400   0.2750
   25   14   1       0.3400   0.2750
   25   16   1       0.3400   0.2750
   25   18   1       0.3400   0.2750
   25   20   1       0.3400   0.2750
   25   22   1       0.3400   0.2750
   25   24   1       0.3400   0.3102
   25   26   1       0.3400   0.3102
   25   28   1       0.3400   0.3102
   25   30   1       0.3400   0.3102
   25   32   1       0.3400   0.3102
   25   34   1       0.3400   0.3102
   25   36   1       0.3400   0.3102
   25   38   1       0.3400   0.2750
   25   40   1       0.3400   0.2750
   25   42   1       0.3400   0.2750
   25   44   1       0.3226   0.6359
   25   46   1       0.3259   0.2316
   25   48   1       0.2234   0.1175
   25   50   1       0.2234   0.1175
   25   52   1       0.3025   0.1175
   25   54   1       0.2936   0.1175
   25   56   1       0.2846   0.1175
   25   58   1       0.2757   0.1175
   25   60   1       0.3000   0.1149
   25   62   1       0.2955   0.1149
   25   64   1       0.2911   0.1149
   25   66   1       0.1700   0.0000
   25   68   1       0.2234   0.1175
   25   70   1       0.1700   0.0000
   25   72   1       0.2680   0.1175
   25   74   1       0.3793   0.5931
   25   76   1       0.3900   0.2966
   25   78   1       0.3364   0.0494
   25   80   1       0.6154   0.2966
   25   82   1       0.2406   0.8871
   25   84   1       0.3325   0.3867
   25   86   1       0.3325   0.3867
   25   88   1       0.3325   0.3867
   25   90   1       0.3325   0.3867
   25   92   1       0.3325   0.3867
   25   94   1       0.3325   0.3867
   25   96   1       0.3325   0.3867
   25   98   1       0.3180   0.4298
   25  100   1       0.3180   0.4298
   25  102   1       0.3275   0.3658
   25  104   1       0.3233   0.4302
   25  106   1       0.3233   0.4302
   25  108   1       0.3200   0.3867
   25  110   1       0.3180   0.4298
   25  112   1       0.3571   0.4194
   25  114   1       0.3482   0.4689
   25  116   1       0.3482   0.4689
   25  118   1       0.3400   0.2750
   25  120   1       0.1700   0.0000
   25  122   1       0.4068   0.0170
   25  124   1       0.4333   0.0122
   25  132   1       0.2713   0.1269
   25  134   1       0.2680   0.1049
   25  136   1       0.1700   0.0000
   25  138   1       0.3282   0.3784
   25  140   1       0.1700   0.0000
   25  142   1       0.3277   0.3692
   25  144   1       0.1700   0.0000
   25  146   1       0.3260   0.3751
   25  148   1       0.1700   0.0000
   25  150   1       0.3282   0.4583
   25  152   1       0.1700   0.0000
   25  154   1       0.1700   0.0000
   25  156   1       0.1700   0.0000
   25  158   1       0.3400   0.3102
   25  160   1       0.3025   0.1175
   25  162   1       0.3400   0.2750
   25  164   1       0.3180   0.4298
   25  166   1       0.3325   0.3867
   25  168   1       0.2936   0.1175
   25  170   1       0.3400   0.2750
   25  172   1       0.3000   0.1149
   25  176   1       0.3325   0.3867
   25  178   1       0.2680   0.1175
   25  180   1       0.3325   0.3867
   25  182   1       0.2234   0.1175
   27    0   1       0.1700   0.0000
   27    2   1       0.3400   0.2750
   27    4   1       0.3400   0.2750
   27    6   1       0.3400   0.2750
   27    8   1       0.3400   0.2750
   27   10   1       0.3400   0.2750
   27   12   1       0.3400   0.2750
   27   14   1       0.3400   0.2750
   27   16   1       0.3400   0.2750
   27   18   1       0.3400   0.2750
   27   20   1       0.3400   0.2750
   27   22   1       0.3400   0.2750
   27   24   1       0.3400   0.3102
   27   26   1       0.3400   0.3102
   27   28   1       0.3400   0.3102
   27   30   1       0.3400   0.3102
   27   32   1       0.3400   0.3102
   27   34   1       0.3400   0.3102
   27   36   1       0.3400   0.3102
   27   38   1       0.3400   0.2750
   27   40   1       0.3400   0.2750
   27   42   1       0.3400   0.2750
   27   44   1       0.3226   0.6359
   27   46   1       0.3259   0.2316
   27   48   1       0.2234   0.1175
   27   50   1       0.2234   0.1175
   27   52   1       0.3025   0.1175
   27   54   1       0.2936   0.1175
   27   56   1       0.2846   0.1175
   27   58   1       0.2757   0.1175
   27   60   1       0.3000   0.1149
   27   62   1       0.2955   0.1149
   27   64   1       0.2911   0.1149
   27   66   1       0.1700   0.0000
   27   68   1       0.2234   0.1175
   27   70   1       0.1700   0.0000
   27   72   1       0.2680   0.1175
   27   74   1       0.3793   0.5931
   27   76   1       0.3900   0.2966
   27   78   1       0.3364   0.0494
   27   80   1       0.6154   0.2966
   27   82   1       0.2406   0.8871
   27   84   1       0.3325   0.3867
   27   86   1       0.3325   0.3867
   27   88   1       0.3325   0.3867
   27   90   1       0.3325   0.3867
   27   92   1       0.3325   0.3867
   27   94   1       0.3325   0.3867
   27   96   1       0.3325   0.3867
   27   98   1       0.3180   0.4298
   27  100   1       0.3180   0.4298
   27  102   1       0.3275   0.3658
   27  104   1       0.3233   0.4302
   27  106   1       0.3233   0.4302
   27  108   1       0.3200   0.3867
   27  110   1       0.3180   0.4298
   27  112   1       0.3571   0.4194
   27  114   1       0.3482   0.4689
   27  116   1       0.3482   0.4689
   27  118   1       0.3400   0.2750
   27  120   1       0.1700   0.0000
   27  122   1       0.4068   0.0170
   27  124   1       0.4333   0.0122
   27  132   1       0.2713   0.1269
   27  134   1       0.2680   0.1049
   27  136   1       0.1700   0.0000
   27  138   1       0.3282   0.3784
   27  140   1       0.1700   0.0000
   27  142   1       0.3277   0.3692
   27  144   1       0.1700   0.0000
   27  146   1       0.3260   0.3751
   27  148   1       0.1700   0.0000
   27  150   1       0.3282   0.4583
   27  152   1       0.1700   0.0000
   27  154   1       0.1700   0.0000
   27  156   1       0.1700   0.0000
   27  158   1       0.3400   0.3102
   27  160   1       0.3025   0.1175
   27  162   1       0.3400   0.2750
   27  164   1       0.3180   0.4298
   27  166   1       0.3325   0.3867
   27  168   1       0.2936   0.1175
   27  170   1       0.3400   0.2750
   27  172   1       0.3000   0.1149
   27  176   1       0.3325   0.3867
   27  178   1       0.2680   0.1175
   27  180   1       0.3325   0.3867
   27  182   1       0.2234   0.1175
   29    0   1       0.1700   0.0000
   29    2   1       0.3400   0.2750
   29    4   1       0.3400   0.2750
   29    6   1       0.3400   0.2750
   29    8   1       0.3400   0.2750
   29   10   1       0.3400   0.2750
   29   12   1       0.3400   0.2750
   29   14   1       0.3400   0.2750
   29   16   1       0.3400   0.2750
   29   18   1       0.3400   0.2750
   29   20   1       0.3400   0.2750
   29   22   1       0.3400   0.2750
   29   24   1       0.3400   0.3102
   29   26   1       0.3400   0.3102
   29   28   1       0.3400   0.3102
   29   30   1       0.3400   0.3102
   29   32   1       0.3400   0.3102
   29   34   1       0.3400   0.3102
   29   36   1       0.3400   0.3102
   29   38   1       0.3400   0.2750
   29   40   1       0.3400   0.2750
   29   42   1       0.3400   0.2750
   29   44   1       0.3226   0.6359
   29   46   1       0.3259   0.2316
   29   48   1       0.2234   0.1175
   29   50   1       0.2234   0.1175
   29   52   1       0.3025   0.1175
   29   54   1       0.2936   0.1175
   29   56   1       0.2846   0.1175
   29   58   1       0.2757   0.1175
   29   60   1       0.3000   0.1149
   29   62   1       0.2955   0.1149
   29   64   1       0.2911   0.1149
   29   66   1       0.1700   0.0000
   29   68   1       0.2234   0.1175
   29   70   1       0.1700   0.0000
   29   72   1       0.2680   0.1175
   29   74   1       0.3793   0.5931
   29   76   1       0.3900   0.2966
   29   78   1       0.3364   0.0494
   29   80   1       0.6154   0.2966
   29   82   1       0.2406   0.8871
   29   84   1       0.3325   0.3867
   29   86   1       0.3325   0.3867
   29   88   1       0.3325   0.3867
   29   90   1       0.3325   0.3867
   29   92   1       0.3325   0.3867
   29   94   1       0.3325   0.3867
   29   96   1       0.3325   0.3867
   29   98   1       0.3180   0.4298
   29  100   1       0.3180   0.4298
   29  102   1       0.3275   0.3658
   29  104   1       0.3233   0.4302
   29  106   1       0.3233   0.4302
   29  108   1       0.3200   0.3867
   29  110   1       0.3180   0.4298
   29  112   1       0.3571   0.4194
   29  114   1       0.3482   0.4689
   29  116   1       0.3482   0.4689
   29  118   1       0.3400   0.2750
   29  120   1       0.1700   0.0000
   29  122   1       0.4068   0.0170
   29  124   1       0.4333   0.0122
   29  132   1       0.2713   0.1269
   29  134   1       0.2680   0.1049
   29  136   1       0.1700   0.0000
   29  138   1       0.3282   0.3784
   29  140   1       0.1700   0.0000
   29  142   1       0.3277   0.3692
   29  144   1       0.1700   0.0000
   29  146   1       0.3260   0.3751
   29  148   1       0.1700   0.0000
   29  150   1       0.3282   0.4583
   29  152   1       0.1700   0.0000
   29  154   1       0.1700   0.0000
   29  156   1       0.1700   0.0000
   29  158   1       0.3400   0.3102
   29  160   1       0.3025   0.1175
   29  162   1       0.3400   0.2750
   29  164   1       0.3180   0.4298
   29  166   1       0.3325   0.3867
   29  168   1       0.2936   0.1175
   29  170   1       0.3400   0.2750
   29  172   1       0.3000   0.1149
   29  176   1       0.3325   0.3867
   29  178   1       0.2680   0.1175
   29  180   1       0.3325   0.3867
   29  182   1       0.2234   0.1175
   31    0   1       0.1700   0.0000
   31    2   1       0.3400   0.2750
   31    4   1       0.3400   0.2750
   31    6   1       0.3400   0.2750
   31    8   1       0.3400   0.2750
   31   10   1       0.3400   0.2750
   31   12   1       0.3400   0.2750
   31   14   1       0.3400   0.2750
   31   16   1       0.3400   0.2750
   31   18   1       0.3400   0.2750
   31   20   1       0.3400   0.2750
   31   22   1       0.3400   0.2750
   31   24   1       0.3400   0.3102
   31   26   1       0.3400   0.3102
   31   28   1       0.3400   0.3102
   31   30   1       0.3400   0.3102
   31   32   1       0.3400   0.3102
   31   34   1       0.3400   0.3102
   31   36   1       0.3400   0.3102
   31   38   1       0.3400   0.2750
   31   40   1       0.3400   0.2750
   31   42   1       0.3400   0.2750
   31   44   1       0.3226   0.6359
   31   46   1       0.3259   0.2316
   31   48   1       0.2234   0.1175
   31   50   1       0.2234   0.1175
   31   52   1       0.3025   0.1175
   31   54   1       0.2936   0.1175
   31   56   1       0.2846   0.1175
   31   58   1       0.2757   0.1175
   31   60   1       0.3000   0.1149
   31   62   1       0.2955   0.1149
   31   64   1       0.2911   0.1149
   31   66   1       0.1700   0.0000
   31   68   1       0.2234   0.1175
   31   70   1       0.1700   0.0000
   31   72   1       0.2680   0.1175
   31   74   1       0.3793   0.5931
   31   76   1       0.3900   0.2966
   31   78   1       0.3364   0.0494
   31   80   1       0.6154   0.2966
   31   82   1       0.2406   0.8871
   31   84   1       0.3325   0.3867
   31   86   1       0.3325   0.3867
   31   88   1       0.3325   0.3867
   31   90   1       0.3325   0.3867
   31   92   1       0.3325   0.3867
   31   94   1       0.3325   0.3867
   31   96   1       0.3325   0.3867
   31   98   1       0.3180   0.4298
   31  100   1       0.3180   0.4298
   31  102   1       0.3275   0.3658
   31  104   1       0.3233   0.4302
   31  106   1       0.3233   0.4302
   31  108   1       0.3200   0.3867
   31  110   1       0.3180   0.4298
   31  112   1       0.3571   0.4194
   31  114   1       0.3482   0.4689
   31  116   1       0.3482   0.4689
   31  118   1       0.3400   0.2750
   31  120   1       0.1700   0.0000
   31  122   1       0.4068   0.0170
   31  124   1       0.4333   0.0122
   31  132   1       0.2713   0.1269
   31  134   1       0.2680   0.1049
   31  136   1       0.1700   0.0000
   31  138   1       0.3282   0.3784
   31  140   1       0.1700   0.0000
   31  142   1       0.3277   0.3692
   31  144   1       0.1700   0.0000
   31  146   1       0.3260   0.3751
   31  148   1       0.1700   0.0000
   31  150   1       0.3282   0.4583
   31  152   1       0.1700   0.0000
   31  154   1       0.1700   0.0000
   31  156   1       0.1700   0.0000
   31  158   1       0.3400   0.3102
   31  160   1       0.3025   0.1175
   31  162   1       0.3400   0.2750
   31  164   1       0.3180   0.4298
   31  166   1       0.3325   0.3867
   31  168   1       0.2936   0.1175
   31  170   1       0.3400   0.2750
   31  172   1       0.3000   0.1149
   31  176   1       0.3325   0.3867
   31  178   1       0.2680   0.1175
   31  180   1       0.3325   0.3867
   31  182   1       0.2234   0.1175
   33    0   1       0.1700   0.0000
   33    2   1       0.3400   0.2750
   33    4   1       0.3400   0.2750
   33    6   1       0.3400   0.2750
   33    8   1       0.3400   0.2750
   33   10   1       0.3400   0.2750
   33   12   1       0.3400   0.2750
   33   14   1       0.3400   0.2750
   33   16   1       0.3400   0.2750
   33   18   1       0.3400   0.2750
   33   20   1       0.3400   0.2750
   33   22   1       0.3400   0.2750
   33   24   1       0.3400   0.3102
   33   26   1       0.3400   0.3102
   33   28   1       0.3400   0.3102
   33   30   1       0.3400   0.3102
   33   32   1       0.3400   0.3102
   33   34   1       0.3400   0.3102
   33   36   1       0.3400   0.3102
   33   38   1       0.3400   0.2750
   33   40   1       0.3400   0.2750
   33   42   1       0.3400   0.2750
   33   44   1       0.3226   0.6359
   33   46   1       0.3259   0.2316
   33   48   1       0.2234   0.1175
   33   50   1       0.2234   0.1175
   33   52   1       0.3025   0.1175
   33   54   1       0.2936   0.1175
   33   56   1       0.2846   0.1175
   33   58   1       0.2757   0.1175
   33   60   1       0.3000   0.1149
   33   62   1       0.2955   0.1149
   33   64   1       0.2911   0.1149
   33   66   1       0.1700   0.0000
   33   68   1       0.2234   0.1175
   33   70   1       0.1700   0.0000
   33   72   1       0.2680   0.1175
   33   74   1       0.3793   0.5931
   33   76   1       0.3900   0.2966
   33   78   1       0.3364   0.0494
   33   80   1       0.6154   0.2966
   33   82   1       0.2406   0.8871
   33   84   1       0.3325   0.3867
   33   86   1       0.3325   0.3867
   33   88   1       0.3325   0.3867
   33   90   1       0.3325   0.3867
   33   92   1       0.3325   0.3867
   33   94   1       0.3325   0.3867
   33   96   1       0.3325   0.3867
   33   98   1       0.3180   0.4298
   33  100   1       0.3180   0.4298
   33  102   1       0.3275   0.3658
   33  104   1       0.3233   0.4302
   33  106   1       0.3233   0.4302
   33  108   1       0.3200   0.3867
   33  110   1       0.3180   0.4298
   33  112   1       0.3571   0.4194
   33  114   1       0.3482   0.4689
   33  116   1       0.3482   0.4689
   33  118   1       0.3400   0.2750
   33  120   1       0.1700   0.0000
   33  122   1       0.4068   0.0170
   33  124   1       0.4333   0.0122
   33  132   1       0.2713   0.1269
   33  134   1       0.2680   0.1049
   33  136   1       0.1700   0.0000
   33  138   1       0.3282   0.3784
   33  140   1       0.1700   0.0000
   33  142   1       0.3277   0.3692
   33  144   1       0.1700   0.0000
   33  146   1       0.3260   0.3751
   33  148   1       0.1700   0.0000
   33  150   1       0.3282   0.4583
   33  152   1       0.1700   0.0000
   33  154   1       0.1700   0.0000
   33  156   1       0.1700   0.0000
   33  158   1       0.3400   0.3102
   33  160   1       0.3025   0.1175
   33  162   1       0.3400   0.2750
   33  164   1       0.3180   0.4298
   33  166   1       0.3325   0.3867
   33  168   1       0.2936   0.1175
   33  170   1       0.3400   0.2750
   33  172   1       0.3000   0.1149
   33  176   1       0.3325   0.3867
   33  178   1       0.2680   0.1175
   33  180   1       0.3325   0.3867
   33  182   1       0.2234   0.1175
   35    0   1       0.1700   0.0000
   35    2   1       0.3400   0.2750
   35    4   1       0.3400   0.2750
   35    6   1       0.3400   0.2750
   35    8   1       0.3400   0.2750
   35   10   1       0.3400   0.2750
   35   12   1       0.3400   0.2750
   35   14   1       0.3400   0.2750
   35   16   1       0.3400   0.2750
   35   18   1       0.3400   0.2750
   35   20   1       0.3400   0.2750
   35   22   1       0.3400   0.2750
   35   24   1       0.3400   0.3102
   35   26   1       0.3400   0.3102
   35   28   1       0.3400   0.3102
   35   30   1       0.3400   0.3102
   35   32   1       0.3400   0.3102
   35   34   1       0.3400   0.3102
   35   36   1       0.3400   0.3102
   35   38   1       0.3400   0.2750
   35   40   1       0.3400   0.2750
   35   42   1       0.3400   0.2750
   35   44   1       0.3226   0.6359
   35   46   1       0.3259   0.2316
   35   48   1       0.2234   0.1175
   35   50   1       0.2234   0.1175
   35   52   1       0.3025   0.1175
   35   54   1       0.2936   0.1175
   35   56   1       0.2846   0.1175
   35   58   1       0.2757   0.1175
   35   60   1       0.3000   0.1149
   35   62   1       0.2955   0.1149
   35   64   1       0.2911   0.1149
   35   66   1       0.1700   0.0000
   35   68   1       0.2234   0.1175
   35   70   1       0.1700   0.0000
   35   72   1       0.2680   0.1175
   35   74   1       0.3793   0.5931
   35   76   1       0.3900   0.2966
   35   78   1       0.3364   0.0494
   35   80   1       0.6154   0.2966
   35   82   1       0.2406   0.8871
   35   84   1       0.3325   0.3867
   35   86   1       0.3325   0.3867
   35   88   1       0.3325   0.3867
   35   90   1       0.3325   0.3867
   35   92   1       0.3325   0.3867
   35   94   1       0.3325   0.3867
   35   96   1       0.3325   0.3867
   35   98   1       0.3180   0.4298
   35  100   1       0.3180   0.4298
   35  102   1       0.3275   0.3658
   35  104   1       0.3233   0.4302
   35  106   1       0.3233   0.4302
   35  108   1       0.3200   0.3867
   35  110   1       0.3180   0.4298
   35  112   1       0.3571   0.4194
   35  114   1       0.3482   0.4689
   35  116   1       0.3482   0.4689
   35  118   1       0.3400   0.2750
   35  120   1       0.1700   0.0000
   35  122   1       0.4068   0.0170
   35  124   1       0.4333   0.0122
   35  132   1       0.2713   0.1269
   35  134   1       0.2680   0.1049
   35  136   1       0.1700   0.0000
   35  138   1       0.3282   0.3784
   35  140   1       0.1700   0.0000
   35  142   1       0.3277   0.3692
   35  144   1       0.1700   0.0000
   35  146   1       0.3260   0.3751
   35  148   1       0.1700   0.0000
   35  150   1       0.3282   0.4583
   35  152   1       0.1700   0.0000
   35  154   1       0.1700   0.0000
   35  156   1       0.1700   0.0000
   35  158   1       0.3400   0.3102
   35  160   1       0.3025   0.1175
   35  162   1       0.3400   0.2750
   35  164   1       0.3180   0.4298
   35  166   1       0.3325   0.3867
   35  168   1       0.2936   0.1175
   35  170   1       0.3400   0.2750
   35  172   1       0.3000   0.1149
   35  176   1       0.3325   0.3867
   35  178   1       0.2680   0.1175
   35  180   1       0.3325   0.3867
   35  182   1       0.2234   0.1175
   37    0   1       0.1700   0.0000
   37    2   1       0.3400   0.2750
   37    4   1       0.3400   0.2750
   37    6   1       0.3400   0.2750
   37    8   1       0.3400   0.2750
   37   10   1       0.3400   0.2750
   37   12   1       0.3400   0.2750
   37   14   1       0.3400   0.2750
   37   16   1       0.3400   0.2750
   37   18   1       0.3400   0.2750
   37   20   1       0.3400   0.2750
   37   22   1       0.3400   0.2750
   37   24   1       0.3400   0.3102
   37   26   1       0.3400   0.3102
   37   28   1       0.3400   0.3102
   37   30   1       0.3400   0.3102
   37   32   1       0.3400   0.3102
   37   34   1       0.3400   0.3102
   37   36   1       0.3400   0.3102
   37   38   1       0.3400   0.2750
   37   40   1       0.3400   0.2750
   37   42   1       0.3400   0.2750
   37   44   1       0.3226   0.6359
   37   46   1       0.3259   0.2316
   37   48   1       0.2234   0.1175
   37   50   1       0.2234   0.1175
   37   52   1       0.3025   0.1175
   37   54   1       0.2936   0.1175
   37   56   1       0.2846   0.1175
   37   58   1       0.2757   0.1175
   37   60   1       0.3000   0.1149
   37   62   1       0.2955   0.1149
   37   64   1       0.2911   0.1149
   37   66   1       0.1700   0.0000
   37   68   1       0.2234   0.1175
   37   70   1       0.1700   0.0000
   37   72   1       0.2680   0.1175
   37   74   1       0.3793   0.5931
   37   76   1       0.3900   0.2966
   37   78   1       0.3364   0.0494
   37   80   1       0.6154   0.2966
   37   82   1       0.2406   0.8871
   37   84   1       0.3325   0.3867
   37   86   1       0.3325   0.3867
   37   88   1       0.3325   0.3867
   37   90   1       0.3325   0.3867
   37   92   1       0.3325   0.3867
   37   94   1       0.3325   0.3867
   37   96   1       0.3325   0.3867
   37   98   1       0.3180   0.4298
   37  100   1       0.3180   0.4298
   37  102   1       0.3275   0.3658
   37  104   1       0.3233   0.4302
   37  106   1       0.3233   0.4302
   37  108   1       0.3200   0.3867
   37  110   1       0.3180   0.4298
   37  112   1       0.3571   0.4194
   37  114   1       0.3482   0.4689
   37  116   1       0.3482   0.4689
   37  118   1       0.3400   0.2750
   37  120   1       0.1700   0.0000
   37  122   1       0.4068   0.0170
   37  124   1       0.4333   0.0122
   37  132   1       0.2713   0.1269
   37  134   1       0.2680   0.1049
   37  136   1       0.1700   0.0000
   37  138   1       0.3282   0.3784
   37  140   1       0.1700   0.0000
   37  142   1       0.3277   0.3692
   37  144   1       0.1700   0.0000
   37  146   1       0.3260   0.3751
   37  148   1       0.1700   0.0000
   37  150   1       0.3282   0.4583
   37  152   1       0.1700   0.0000
   37  154   1       0.1700   0.0000
   37  156   1       0.1700   0.0000
   37  158   1       0.3400   0.3102
   37  160   1       0.3025   0.1175
   37  162   1       0.3400   0.2750
   37  164   1       0.3180   0.4298
   37  166   1       0.3325   0.3867
   37  168   1       0.2936   0.1175
   37  170   1       0.3400   0.2750
   37  172   1       0.3000   0.1149
   37  176   1       0.3325   0.3867
   37  178   1       0.2680   0.1175
   37  180   1       0.3325   0.3867
   37  182   1       0.2234   0.1175
   39    0   1       0.1700   0.0000
   39    2   1       0.3400   0.2439
   39    4   1       0.3400   0.2439
   39    6   1       0.3400   0.2439
   39    8   1       0.3400   0.2439
   39   10   1       0.3400   0.2439
   39   12   1       0.3400   0.2439
   39   14   1       0.3400   0.2439
   39   16   1       0.3400   0.2439
   39   18   1       0.3400   0.2439
   39   20   1       0.3400   0.2439
   39   22   1       0.3400   0.2439
   39   24   1       0.3400   0.2750
   39   26   1       0.3400   0.2750
   39   28   1       0.3400   0.2750
   39   30   1       0.3400   0.2750
   39   32   1       0.3400   0.2750
   39   34   1       0.3400   0.2750
   39   36   1       0.3400   0.2750
   39   38   1       0.3400   0.2439
   39   40   1       0.3400   0.2439
   39   42   1       0.3400   0.2439
   39   44   1       0.3226   0.5638
   39   46   1       0.3259   0.2054
   39   48   1       0.2234   0.1042
   39   50   1       0.2234   0.1042
   39   52   1       0.3025   0.1042
   39   54   1       0.2936   0.1042
   39   56   1       0.2846   0.1042
   39   58   1       0.2757   0.1042
   39   60   1       0.3000   0.1018
   39   62   1       0.2955   0.1018
   39   64   1       0.2911   0.1018
   39   66   1       0.1700   0.0000
   39   68   1       0.2234   0.1042
   39   70   1       0.1700   0.0000
   39   72   1       0.2680   0.1042
   39   74   1       0.3793   0.5259
   39   76   1       0.3900   0.2630
   39   78   1       0.3364   0.0438
   39   80   1       0.6154   0.2630
   39   82   1       0.2406   0.7865
   39   84   1       0.3325   0.3428
   39   86   1       0.3325   0.3428
   39   88   1       0.3325   0.3428
   39   90   1       0.3325   0.3428
   39   92   1       0.3325   0.3428
   39   94   1       0.3325   0.3428
   39   96   1       0.3325   0.3428
   39   98   1       0.3180   0.3811
   39  100   1       0.3180   0.3811
   39  102   1       0.3275   0.3243
   39  104   1       0.3233   0.3814
   39  106   1       0.3233   0.3814
   39  108   1       0.3200   0.3428
   39  110   1       0.3180   0.3811
   39  112   1       0.3571   0.3719
   39  114   1       0.3482   0.4158
   39  116   1       0.3482   0.4158
   39  118   1       0.3400   0.2439
   39  120   1       0.1700   0.0000
   39  122   1       0.4068   0.0151
   39  124   1       0.4333   0.0108
   39  132   1       0.2713   0.1125
   39  134   1       0.2680   0.0930
   39  136   1       0.1700   0.0000
   39  138   1       0.3282   0.3355
   39  140   1       0.1700   0.0000
   39  142   1       0.3277   0.3274
   39  144   1       0.1700   0.0000
   39  146   1       0.3260   0.3326
   39  148   1       0.1700   0.0000
   39  150   1       0.3282   0.4063
   39  152   1       0.1700   0.0000
   39  154   1       0.1700   0.0000
   39  156   1       0.1700   0.0000
   39  158   1       0.3400   0.2750
   39  160   1       0.3025   0.1042
   39  162   1       0.3400   0.2439
   39  164   1       0.3180   0.3811
   39  166   1       0.3325   0.3428
   39  168   1       0.2936   0.1042
   39  170   1       0.3400   0.2439
   39  172   1       0.3000   0.1018
   39  176   1       0.3325   0.3428
   39  178   1       0.2680   0.1042
   39  180   1       0.3325   0.3428
   39  182   1       0.2234   0.1042
   41    0   1       0.1700   0.0000
   41    2   1       0.3400   0.2439
   41    4   1       0.3400   0.2439
   41    6   1       0.3400   0.2439
   41    8   1       0.3400   0.2439
   41   10   1       0.3400   0.2439
   41   12   1       0.3400   0.2439
   41   14   1       0.3400   0.2439
   41   16   1       0.3400   0.2439
   41   18   1       0.3400   0.2439
   41   20   1       0.3400   0.2439
   41   22   1       0.3400   0.2439
   41   24   1       0.3400   0.2750
   41   26   1       0.3400   0.2750
   41   28   1       0.3400   0.2750
   41   30   1       0.3400   0.2750
   41   32   1       0.3400   0.2750
   41   34   1       0.3400   0.2750
   41   36   1       0.3400   0.2750
   41   38   1       0.3400   0.2439
   41   40   1       0.3400   0.2439
   41   42   1       0.3400   0.2439
   41   44   1       0.3226   0.5638
   41   46   1       0.3259   0.2054
   41   48   1       0.2234   0.1042
   41   50   1       0.2234   0.1042
   41   52   1       0.3025   0.1042
   41   54   1       0.2936   0.1042
   41   56   1       0.2846   0.1042
   41   58   1       0.2757   0.1042
   41   60   1       0.3000   0.1018
   41   62   1       0.2955   0.1018
   41   64   1       0.2911   0.1018
   41   66   1       0.1700   0.0000
   41   68   1       0.2234   0.1042
   41   70   1       0.1700   0.0000
   41   72   1       0.2680   0.1042
   41   74   1       0.3793   0.5259
   41   76   1       0.3900   0.2630
   41   78   1       0.3364   0.0438
   41   80   1       0.6154   0.2630
   41   82   1       0.2406   0.7865
   41   84   1       0.3325   0.3428
   41   86   1       0.3325   0.3428
   41   88   1       0.3325   0.3428
   41   90   1       0.3325   0.3428
   41   92   1       0.3325   0.3428
   41   94   1       0.3325   0.3428
   41   96   1       0.3325   0.3428
   41   98   1       0.3180   0.3811
   41  100   1       0.3180   0.3811
   41  102   1       0.3275   0.3243
   41  104   1       0.3233   0.3814
   41  106   1       0.3233   0.3814
   41  108   1       0.3200   0.3428
   41  110   1       0.3180   0.3811
   41  112   1       0.3571   0.3719
   41  114   1       0.3482   0.4158
   41  116   1       0.3482   0.4158
   41  118   1       0.3400   0.2439
   41  120   1       0.1700   0.0000
   41  122   1       0.4068   0.0151
   41  124   1       0.4333   0.0108
   41  132   1       0.2713   0.1125
   41  134   1       0.2680   0.0930
   41  136   1       0.1700   0.0000
   41  138   1       0.3282   0.3355
   41  140   1       0.1700   0.0000
   41  142   1       0.3277   0.3274
   41  144   1       0.1700   0.0000
   41  146   1       0.3260   0.3326
   41  148   1       0.1700   0.0000
   41  150   1       0.3282   0.4063
   41  152   1       0.1700   0.0000
   41  154   1       0.1700   0.0000
   41  156   1       0.1700   0.0000
   41  158   1       0.3400   0.2750
   41  160   1       0.3025   0.1042
   41  162   1       0.3400   0.2439
   41  164   1       0.3180   0.3811
   41  166   1       0.3325   0.3428
   41  168   1       0.2936   0.1042
   41  170   1       0.3400   0.2439
   41  172   1       0.3000   0.1018
   41  176   1       0.3325   0.3428
   41  178   1       0.2680   0.1042
   41  180   1       0.3325   0.3428
   41  182   1       0.2234   0.1042
   43    0   1       0.1700   0.0000
   43    2   1       0.3400   0.2439
   43    4   1       0.3400   0.2439
   43    6   1       0.3400   0.2439
   43    8   1       0.3400   0.2439
   43   10   1       0.3400   0.2439
   43   12   1       0.3400   0.2439
   43   14   1       0.3400   0.2439
   43   16   1       0.3400   0.2439
   43   18   1       0.3400   0.2439
   43   20   1       0.3400   0.2439
   43   22   1       0.3400   0.2439
   43   24   1       0.3400   0.2750
   43   26   1       0.3400   0.2750
   43   28   1       0.3400   0.2750
   43   30   1       0.3400   0.2750
   43   32   1       0.3400   0.2750
   43   34   1       0.3400   0.2750
   43   36   1       0.3400   0.2750
   43   38   1       0.3400   0.2439
   43   40   1       0.3400   0.2439
   43   42   1       0.3400   0.2439
   43   44   1       0.3226   0.5638
   43   46   1       0.3259   0.2054
   43   48   1       0.2234   0.1042
   43   50   1       0.2234   0.1042
   43   52   1       0.3025   0.1042
   43   54   1       0.2936   0.1042
   43   56   1       0.2846   0.1042
   43   58   1       0.2757   0.1042
   43   60   1       0.3000   0.1018
   43   62   1       0.2955   0.1018
   43   64   1       0.2911   0.1018
   43   66   1       0.1700   0.0000
   43   68   1       0.2234   0.1042
   43   70   1       0.1700   0.0000
   43   72   1       0.2680   0.1042
   43   74   1       0.3793   0.5259
   43   76   1       0.3900   0.2630
   43   78   1       0.3364   0.0438
   43   80   1       0.6154   0.2630
   43   82   1       0.2406   0.7865
   43   84   1       0.3325   0.3428
   43   86   1       0.3325   0.3428
   43   88   1       0.3325   0.3428
   43   90   1       0.3325   0.3428
   43   92   1       0.3325   0.3428
   43   94   1       0.3325   0.3428
   43   96   1       0.3325   0.3428
   43   98   1       0.3180   0.3811
   43  100   1       0.3180   0.3811
   43  102   1       0.3275   0.3243
   43  104   1       0.3233   0.3814
   43  106   1       0.3233   0.3814
   43  108   1       0.3200   0.3428
   43  110   1       0.3180   0.3811
   43  112   1       0.3571   0.3719
   43  114   1       0.3482   0.4158
   43  116   1       0.3482   0.4158
   43  118   1       0.3400   0.2439
   43  120   1       0.1700   0.0000
   43  122   1       0.4068   0.0151
   43  124   1       0.4333   0.0108
   43  132   1       0.2713   0.1125
   43  134   1       0.2680   0.0930
   43  136   1       0.1700   0.0000
   43  138   1       0.3282   0.3355
   43  140   1       0.1700   0.0000
   43  142   1       0.3277   0.3274
   43  144   1       0.1700   0.0000
   43  146   1       0.3260   0.3326
   43  148   1       0.1700   0.0000
   43  150   1       0.3282   0.4063
   43  152   1       0.1700   0.0000
   43  154   1       0.1700   0.0000
   43  156   1       0.1700   0.0000
   43  158   1       0.3400   0.2750
   43  160   1       0.3025   0.1042
   43  162   1       0.3400   0.2439
   43  164   1       0.3180   0.3811
   43  166   1       0.3325   0.3428
   43  168   1       0.2936   0.1042
   43  170   1       0.3400   0.2439
   43  172   1       0.3000   0.1018
   43  176   1       0.3325   0.3428
   43  178   1       0.2680   0.1042
   43  180   1       0.3325   0.3428
   43  182   1       0.2234   0.1042
   45    0   1       0.1526   0.0000
   45    2   1       0.3226   0.5638
   45    4   1       0.3226   0.5638
   45    6   1       0.3226   0.5638
   45    8   1       0.3226   0.5638
   45   10   1       0.3226   0.5638
   45   12   1       0.3226   0.5638
   45   14   1       0.3226   0.5638
   45   16   1       0.3226   0.5638
   45   18   1       0.3226   0.5638
   45   20   1       0.3226   0.5638
   45   22   1       0.3226   0.5638
   45   24   1       0.3226   0.6359
   45   26   1       0.3226   0.6359
   45   28   1       0.3226   0.6359
   45   30   1       0.3226   0.6359
   45   32   1       0.3226   0.6359
   45   34   1       0.3226   0.6359
   45   36   1       0.3226   0.6359
   45   38   1       0.3226   0.5638
   45   40   1       0.3226   0.5638
   45   42   1       0.3226   0.5638
   45   44   1       0.3052   1.3037
   45   46   1       0.3085   0.4749
   45   48   1       0.2061   0.2409
   45   50   1       0.2061   0.2409
   45   52   1       0.2851   0.2409
   45   54   1       0.2762   0.2409
   45   56   1       0.2673   0.2409
   45   58   1       0.2584   0.2409
   45   60   1       0.2826   0.2355
   45   62   1       0.2781   0.2355
   45   64   1       0.2737   0.2355
   45   66   1       0.1526   0.0000
   45   68   1       0.2061   0.2409
   45   70   1       0.1526   0.0000
   45   72   1       0.2506   0.2409
   45   74   1       0.3620   1.2160
   45   76   1       0.3727   0.6080
   45   78   1       0.3190   0.1012
   45   80   1       0.5981   0.6080
   45   82   1       0.2232   1.8186
   45   84   1       0.3151   0.7927
   45   86   1       0.3151   0.7927
   45   88   1       0.3151   0.7927
   45   90   1       0.3151   0.7927
   45   92   1       0.3151   0.7927
   45   94   1       0.3151   0.7927
   45   96   1       0.3151   0.7927
   45   98   1       0.3006   0.8811
   45  100   1       0.3006   0.8811
   45  102   1       0.3102   0.7498
   45  104   1       0.3059   0.8819
   45  106   1       0.3059   0.8819
   45  108   1       0.3026   0.7927
   45  110   1       0.3006   0.8811
   45  112   1       0.3397   0.8598
   45  114   1       0.3308   0.9613
   45  116   1       0.3308   0.9613
   45  118   1       0.3226   0.5638
   45  120   1       0.1526   0.0000
   45  122   1       0.3894   0.0348
   45  124   1       0.4160   0.0251
   45  132   1       0.2539   0.2601
   45  134   1       0.2506   0.2150
   45  136   1       0.1526   0.0000
   45  138   1       0.3108   0.7756
   45  140   1       0.1526   0.0000
   45  142   1       0.3103   0.7570
   45  144   1       0.1526   0.0000
   45  146   1       0.3086   0.7691
   45  148   1       0.1526   0.0000
   45  150   1       0.3109   0.9395
   45  152   1       0.1526   0.0000
   45  154   1       0.1526   0.0000
   45  156   1       0.1526   0.0000
   45  158   1       0.3226   0.6359
   45  160   1       0.2851   0.2409
   45  162   1       0.3226   0.5638
   45  164   1       0.3006   0.8811
   45  166   1       0.3151   0.7927
   45  168   1       0.2762   0.2409
   45  170   1       0.3226   0.5638
   45  172   1       0.2826   0.2355
   45  176   1       0.3151   0.7927
   45  178   1       0.2506   0.2409
   45  180   1       0.3151   0.7927
   45  182   1       0.2061   0.2409
   47    0   1       0.1559   0.0000
   47    2   1       0.3259   0.2054
   47    4   1       0.3259   0.2054
   47    6   1       0.3259   0.2054
   47    8   1       0.3259   0.2054
   47   10   1       0.3259   0.2054
   47   12   1       0.3259   0.2054
   47   14   1       0.3259   0.2054
   47   16   1       0.3259   0.2054
   47   18   1       0.3259   0.2054
   47   20   1       0.3259   0.2054
   47   22   1       0.3259   0.2054
   47   24   1       0.3259   0.2316
   47   26   1       0.3259   0.2316
   47   28   1       0.3259   0.2316
   47   30   1       0.3259   0.2316
   47   32   1       0.3259   0.2316
   47   34   1       0.3259   0.2316
   47   36   1       0.3259   0.2316
   47   38   1       0.3259   0.2054
   47   40   1       0.3259   0.2054
   47   42   1       0.3259   0.2054
   47   44   1       0.3085   0.4749
   47   46   1       0.3118   0.1730
   47   48   1       0.2094   0.0877
   47   50   1       0.2094   0.0877
   47   52   1       0.2884   0.0877
   47   54   1       0.2795   0.0877
   47   56   1       0.2706   0.0877
   47   58   1       0.2617   0.0877
   47   60   1       0.2859   0.0858
   47   62   1       0.2814   0.0858
   47   64   1       0.2770   0.0858
   47   66   1       0.1559   0.0000
   47   68   1       0.2094   0.0877
   47   70   1       0.1559   0.0000
   47   72   1       0.2539   0.0877
   47   74   1       0.3653   0.4429
   47   76   1       0.3760   0.2215
   47   78   1       0.3223   0.0369
   47   80   1       0.6014   0.2215
   47   82   1       0.2265   0.6624
   47   84   1       0.3184   0.2887
   47   86   1       0.3184   0.2887
   47   88   1       0.3184   0.2887
   47   90   1       0.3184   0.2887
   47   92   1       0.3184   0.2887
   47   94   1       0.3184   0.2887
   47   96   1       0.3184   0.2887
   47   98   1       0.3039   0.3209
   47  100   1       0.3039   0.3209
   47  102   1       0.3134   0.2731
   47  104   1       0.3092   0.3212
   47  106   1       0.3092   0.3212
   47  108   1       0.3059   0.2887
   47  110   1       0.3039   0.3209
   47  112   1       0.3430   0.3132
   47  114   1       0.3341   0.3502
   47  116   1       0.3341   0.3502
   47  118   1       0.3259   0.2054
   47  120   1       0.1559   0.0000
   47  122   1       0.3927   0.0127
   47  124   1       0.4193   0.0091
   47  132   1       0.2572   0.0947
   47  134   1       0.2539   0.0783
   47  136   1       0.1559   0.0000
   47  138   1       0.3141   0.2825
   47  140   1       0.1559   0.0000
   47  142   1       0.3136   0.2757
   47  144   1       0.1559   0.0000
   47  146   1       0.3119   0.2801
   47  148   1       0.1559   0.0000
   47  150   1       0.3142   0.3422
   47  152   1       0.1559   0.0000
   47  154   1       0.1559   0.0000
   47  156   1       0.1559   0.0000
   47  158   1       0.3259   0.2316
   47  160   1       0.2884   0.0877
   47  162   1       0.3259   0.2054
   47  164   1       0.3039   0.3209
   47  166   1       0.3184   0.2887
   47  168   1       0.2795   0.0877
   47  170   1       0.3259   0.2054
   47  172   1       0.2859   0.0858
   47  176   1       0.3184   0.2887
   47  178   1       0.2539   0.0877
   47  180   1       0.3184   0.2887
   47  182   1       0.2094   0.0877
   49    0   1       0.0535   0.0000
   49    2   1       0.2234   0.1042
   49    4   1       0.2234   0.1042
   49    6   1       0.2234   0.1042
   49    8   1       0.2234   0.1042
   49   10   1       0.2234   0.1042
   49   12   1       0.2234   0.1042
   49   14   1       0.2234   0.1042
   49   16   1       0.2234   0.1042
   49   18   1       0.2234   0.1042
   49   20   1       0.2234   0.1042
   49   22   1       0.2234   0.1042
   49   24   1       0.2234   0.1175
   49   26   1       0.2234   0.1175
   49   28   1       0.2234   0.1175
   49   30   1       0.2234   0.1175
   49   32   1       0.2234   0.1175
   49   34   1       0.2234   0.1175
   49   36   1       0.2234   0.1175
   49   38   1       0.2234   0.1042
   49   40   1       0.2234   0.1042
   49   42   1       0.2234   0.1042
   49   44   1       0.2061   0.2409
   49   46   1       0.2094   0.0877
   49   48   1       0.1069   0.0445
   49   50   1       0.1069   0.0445
   49   52   1       0.1859   0.0445
   49   54   1       0.1770   0.0445
   49   56   1       0.1681   0.0445
   49   58   1       0.1592   0.0445
   49   60   1       0.1834   0.0435
   49   62   1       0.1790   0.0435
   49   64   1       0.1745   0.0435
   49   66   1       0.0535   0.0000
   49   68   1       0.1069   0.0445
   49   70   1       0.0535   0.0000
   49   72   1       0.1515   0.0445
   49   74   1       0.2628   0.2247
   49   76   1       0.2735   0.1124
   49   78   1       0.2199   0.0187
   49   80   1       0.4989   0.1124
   49   82   1       0.1241   0.3361
   49   84   1       0.2160   0.1465
   49   86   1       0.2160   0.1465
   49   88   1       0.2160   0.1465
   49   90   1       0.2160   0.1465
   49   92   1       0.2160   0.1465
   49   94   1       0.2160   0.1465
   49   96   1       0.2160   0.1465
   49   98   1       0.2014   0.1628
   49  100   1       0.2014   0.1628
   49  102   1       0.2110   0.1386
   49  104   1       0.2068   0.1630
   49  106   1       0.2068   0.1630
   49  108   1       0.2035   0.1465
   49  110   1       0.2014   0.1628
   49  112   1       0.2405   0.1589
   49  114   1       0.2316   0.1776
   49  116   1       0.2316   0.1776
   49  118   1       0.2234   0.1042
   49  120   1       0.0535   0.0000
   49  122   1       0.2903   0.0064
   49  124   1       0.3168   0.0046
   49  132   1       0.1547   0.0481
   49  134   1       0.1515   0.0397
   49  136   1       0.0535   0.0000
   49  138   1       0.2117   0.1433
   49  140   1       0.0535   0.0000
   49  142   1       0.2111   0.1399
   49  144   1       0.0535   0.0000
   49  146   1       0.2095   0.1421
   49  148   1       0.0535   0.0000
   49  150   1       0.2117   0.1736
   49  152   1       0.0535   0.0000
   49  154   1       0.0535   0.0000
   49  156   1       0.0535   0.0000
   49  158   1       0.2234   0.1175
   49  160   1       0.1859   0.0445
   49  162   1       0.2234   0.1042
   49  164   1       0.2014   0.1628
   49  166   1       0.2160   0.1465
   49  168   1       0.1770   0.0445
   49  170   1       0.2234   0.1042
   49  172   1       0.1834   0.0435
   49  176   1       0.2160   0.1465
   49  178   1       0.1515   0.0445
   49  180   1       0.2160   0.1465
   49  182   1       0.1069   0.0445
   51    0   1       0.0535   0.0000
   51    2   1       0.2234   0.1042
   51    4   1       0.2234   0.1042
   51    6   1       0.2234   0.1042
   51    8   1       0.2234   0.1042
   51   10   1       0.2234   0.1042
   51   12   1       0.2234   0.1042
   51   14   1       0.2234   0.1042
   51   16   1       0.2234   0.1042
   51   18   1       0.2234   0.1042
   51   20   1       0.2234   0.1042
   51   22   1       0.2234   0.1042
   51   24   1       0.2234   0.1175
   51   26   1       0.2234   0.1175
   51   28   1       0.2234   0.1175
   51   30   1       0.2234   0.1175
   51   32   1       0.2234   0.1175
   51   34   1       0.2234   0.1175
   51   36   1       0.2234   0.1175
   51   38   1       0.2234   0.1042
   51   40   1       0.2234   0.1042
   51   42   1       0.2234   0.1042
   51   44   1       0.2061   0.2409
   51   46   1       0.2094   0.0877
   51   48   1       0.1069   0.0445
   51   50   1       0.1069   0.0445
   51   52   1       0.1859   0.0445
   51   54   1       0.1770   0.0445
   51   56   1       0.1681   0.0445
   51   58   1       0.1592   0.0445
   51   60   1       0.1834   0.0435
   51   62   1       0.1790   0.0435
   51   64   1       0.1745   0.0435
   51   66   1       0.0535   0.0000
   51   68   1       0.1069   0.0445
   51   70   1       0.0535   0.0000
   51   72   1       0.1515   0.0445
   51   74   1       0.2628   0.2247
   51   76   1       0.2735   0.1124
   51   78   1       0.2199   0.0187
   51   80   1       0.4989   0.1124
   51   82   1       0.1241   0.3361
   51   84   1       0.2160   0.1465
   51   86   1       0.2160   0.1465
   51   88   1       0.2160   0.1465
   51   90   1       0.2160   0.1465
   51   92   1       0.2160   0.1465
   51   94   1       0.2160   0.1465
   51   96   1       0.2160   0.1465
   51   98   1       0.2014   0.1628
   51  100   1       0.2014   0.1628
   51  102   1       0.2110   0.1386
   51  104   1       0.2068   0.1630
   51  106   1       0.2068   0.1630
   51  108   1       0.2035   0.1465
   51  110   1       0.2014   0.1628
   51  112   1       0.2405   0.1589
   51  114   1       0.2316   0.1776
   51  116   1       0.2316   0.1776
   51  118   1       0.2234   0.1042
   51  120   1       0.0535   0.0000
   51  122   1       0.2903   0.0064
   51  124   1       0.3168   0.0046
   51  132   1       0.1547   0.0481
   51  134   1       0.1515   0.0397
   51  136   1       0.0535   0.0000
   51  138   1       0.2117   0.1433
   51  140   1       0.0535   0.0000
   51  142   1       0.2111   0.1399
   51  144   1       0.0535   0.0000
   51  146   1       0.2095   0.1421
   51  148   1       0.0535   0.0000
   51  150   1       0.2117   0.1736
   51  152   1       0.0535   0.0000
   51  154   1       0.0535   0.0000
   51  156   1       0.0535   0.0000
   51  158   1       0.2234   0.1175
   51  160   1       0.1859   0.0445
   51  162   1       0.2234   0.1042
   51  164   1       0.2014   0.1628
   51  166   1       0.2160   0.1465
   51  168   1       0.1770   0.0445
   51  170   1       0.2234   0.1042
   51  172   1       0.1834   0.0435
   51  176   1       0.2160   0.1465
   51  178   1       0.1515   0.0445
   51  180   1       0.2160   0.1465
   51  182   1       0.1069   0.0445
   53    0   1       0.1325   0.0000
   53    2   1       0.3025   0.1042
   53    4   1       0.3025   0.1042
   53    6   1       0.3025   0.1042
   53    8   1       0.3025   0.1042
   53   10   1       0.3025   0.1042
   53   12   1       0.3025   0.1042
   53   14   1       0.3025   0.1042
   53   16   1       0.3025   0.1042
   53   18   1       0.3025   0.1042
   53   20   1       0.3025   0.1042
   53   22   1       0.3025   0.1042
   53   24   1       0.3025   0.1175
   53   26   1       0.3025   0.1175
   53   28   1       0.3025   0.1175
   53   30   1       0.3025   0.1175
   53   32   1       0.3025   0.1175
   53   34   1       0.3025   0.1175
   53   36   1       0.3025   0.1175
   53   38   1       0.3025   0.1042
   53   40   1       0.3025   0.1042
   53   42   1       0.3025   0.1042
   53   44   1       0.2851   0.2409
   53   46   1       0.2884   0.0877
   53   48   1       0.1859   0.0445
   53   50   1       0.1859   0.0445
   53   52   1       0.2650   0.0445
   53   54   1       0.2560   0.0445
   53   56   1       0.2471   0.0445
   53   58   1       0.2382   0.0445
   53   60   1       0.2625   0.0435
   53   62   1       0.2580   0.0435
   53   64   1       0.2535   0.0435
   53   66   1       0.1325   0.0000
   53   68   1       0.1859   0.0445
   53   70   1       0.1325   0.0000
   53   72   1       0.2305   0.0445
   53   74   1       0.3418   0.2247
   53   76   1       0.3525   0.1124
   53   78   1       0.2989   0.0187
   53   80   1       0.5779   0.1124
   53   82   1       0.2031   0.3361
   53   84   1       0.2950   0.1465
   53   86   1       0.2950   0.1465
   53   88   1       0.2950   0.1465
   53   90   1       0.2950   0.1465
   53   92   1       0.2950   0.1465
   53   94   1       0.2950   0.1465
   53   96   1       0.2950   0.1465
   53   98   1       0.2805   0.1628
   53  100   1       0.2805   0.1628
   53  102   1       0.2900   0.1386
   53  104   1       0.2858   0.1630
   53  106   1       0.2858   0.1630
   53  108   1       0.2825   0.1465
   53  110   1       0.2805   0.1628
   53  112   1       0.3196   0.1589
   53  114   1       0.3107   0.1776
   53  116   1       0.3107   0.1776
   53  118   1       0.3025   0.1042
   53  120   1       0.1325   0.0000
   53  122   1       0.3693   0.0064
   53  124   1       0.3958   0.0046
   53  132   1       0.2338   0.0481
   53  134   1       0.2305   0.0397
   53  136   1       0.1325   0.0000
   53  138   1       0.2907   0.1433
   53  140   1       0.1325   0.0000
   53  142   1       0.2902   0.1399
   53  144   1       0.1325   0.0000
   53  146   1       0.2885   0.1421
   53  148   1       0.1325   0.0000
   53  150   1       0.2907   0.1736
   53  152   1       0.1325   0.0000
   53  154   1       0.1325   0.0000
   53  156   1       0.1325   0.0000
   53  158   1       0.3025   0.1175
   53  160   1       0.2650   0.0445
   53  162   1       0.3025   0.1042
   53  164   1       0.2805   0.1628
   53  166   1       0.2950   0.1465
   53  168   1       0.2560   0.0445
   53  170   1       0.3025   0.1042
   53  172   1       0.2625   0.0435
   53  176   1       0.2950   0.1465
   53  178   1       0.2305   0.0445
   53  180   1       0.2950   0.1465
   53  182   1       0.1859   0.0445
   55    0   1       0.1236   0.0000
   55    2   1       0.2936   0.1042
   55    4   1       0.2936   0.1042
   55    6   1       0.2936   0.1042
   55    8   1       0.2936   0.1042
   55   10   1       0.2936   0.1042
   55   12   1       0.2936   0.1042
   55   14   1       0.2936   0.1042
   55   16   1       0.2936   0.1042
   55   18   1       0.2936   0.1042
   55   20   1       0.2936   0.1042
   55   22   1       0.2936   0.1042
   55   24   1       0.2936   0.1175
   55   26   1       0.2936   0.1175
   55   28   1       0.2936   0.1175
   55   30   1       0.2936   0.1175
   55   32   1       0.2936   0.1175
   55   34   1       0.2936   0.1175
   55   36   1       0.2936   0.1175
   55   38   1       0.2936   0.1042
   55   40   1       0.2936   0.1042
   55   42   1       0.2936   0.1042
   55   44   1       0.2762   0.2409
   55   46   1       0.2795   0.0877
   55   48   1       0.1770   0.0445
   55   50   1       0.1770   0.0445
   55   52   1       0.2560   0.0445
   55   54   1       0.2471   0.0445
   55   56   1       0.2382   0.0445
   55   58   1       0.2293   0.0445
   55   60   1       0.2535   0.0435
   55   62   1       0.2491   0.0435
   55   64   1       0.2446   0.0435
   55   66   1       0.1236   0.0000
   55   68   1       0.1770   0.0445
   55   70   1       0.1236   0.0000
   55   72   1       0.2216   0.0445
   55   74   1       0.3329   0.2247
   55   76   1       0.3436   0.1124
   55   78   1       0.2900   0.0187
   55   80   1       0.5690   0.1124
   55   82   1       0.1942   0.3361
   55   84   1       0.2861   0.1465
   55   86   1       0.2861   0.1465
   55   88   1       0.2861   0.1465
   55   90   1       0.2861   0.1465
   55   92   1       0.2861   0.1465
   55   94   1       0.2861   0.1465
   55   96   1       0.2861   0.1465
   55   98   1       0.2716   0.1628
   55  100   1       0.2716   0.1628
   55  102   1       0.2811   0.1386
   55  104   1       0.2769   0.1630
   55  106   1       0.2769   0.1630
   55  108   1       0.2736   0.1465
   55  110   1       0.2716   0.1628
   55  112   1       0.3107   0.1589
   55  114   1       0.3017   0.1776
   55  116   1       0.3017   0.1776
   55  118   1       0.2936   0.1042
   55  120   1       0.1236   0.0000
   55  122   1       0.3604   0.0064
   55  124   1       0.3869   0.0046
   55  132   1       0.2249   0.0481
   55  134   1       0.2216   0.0397
   55  136   1       0.1236   0.0000
   55  138   1       0.2818   0.1433
   55  140   1       0.1236   0.0000
   55  142   1       0.2812   0.1399
   55  144   1       0.1236   0.0000
   55  146   1       0.2796   0.1421
   55  148   1       0.1236   0.0000
   55  150   1       0.2818   0.1736
   55  152   1       0.1236   0.0000
   55  154   1       0.1236   0.0000
   55  156   1       0.1236   0.0000
   55  158   1       0.2936   0.1175
   55  160   1       0.2560   0.0445
   55  162   1       0.2936   0.1042
   55  164   1       0.2716   0.1628
   55  166   1       0.2861   0.1465
   55  168   1       0.2471   0.0445
   55  170   1       0.2936   0.1042
   55  172   1       0.2535   0.0435
   55  176   1       0.2861   0.1465
   55  178   1       0.2216   0.0445
   55  180   1       0.2861   0.1465
   55  182   1       0.1770   0.0445
   57    0   1       0.1147   0.0000
   57    2   1       0.2846   0.1042
   57    4   1       0.2846   0.1042
   57    6   1       0.2846   0.1042
   57    8   1       0.2846   0.1042
   57   10   1       0.2846   0.1042
   57   12   1       0.2846   0.1042
   57   14   1       0.2846   0.1042
   57   16   1       0.2846   0.1042
   57   18   1       0.2846   0.1042
   57   20   1       0.2846   0.1042
   57   22   1       0.2846   0.1042
   57   24   1       0.2846   0.1175
   57   26   1       0.2846   0.1175
   57   28   1       0.2846   0.1175
   57   30   1       0.2846   0.1175
   57   32   1       0.2846   0.1175
   57   34   1       0.2846   0.1175
   57   36   1       0.2846   0.1175
   57   38   1       0.2846   0.1042
   57   40   1       0.2846   0.1042
   57   42   1       0.2846   0.1042
   57   44   1       0.2673   0.2409
   57   46   1       0.2706   0.0877
   57   48   1       0.1681   0.0445
   57   50   1       0.1681   0.0445
   57   52   1       0.2471   0.0445
   57   54   1       0.2382   0.0445
   57   56   1       0.2293   0.0445
   57   58   1       0.2204   0.0445
   57   60   1       0.2446   0.0435
   57   62   1       0.2402   0.0435
   57   64   1       0.2357   0.0435
   57   66   1       0.1147   0.0000
   57   68   1       0.1681   0.0445
   57   70   1       0.1147   0.0000
   57   72   1       0.2127   0.0445
   57   74   1       0.3240   0.2247
   57   76   1       0.3347   0.1124
   57   78   1       0.2811   0.0187
   57   80   1       0.5601   0.1124
   57   82   1       0.1853   0.3361
   57   84   1       0.2772   0.1465
   57   86   1       0.2772   0.1465
   57   88   1       0.2772   0.1465
   57   90   1       0.2772   0.1465
   57   92   1       0.2772   0.1465
   57   94   1       0.2772   0.1465
   57   96   1       0.2772   0.1465
   57   98   1       0.2627   0.1628
   57  100   1       0.2627   0.1628
   57  102   1       0.2722   0.1386
   57  104   1       0.2680   0.1630
   57  106   1       0.2680   0.1630
   57  108   1       0.2647   0.1465
   57  110   1       0.2627   0.1628
   57  112   1       0.3017   0.1589
   57  114   1       0.2928   0.1776
   57  116   1       0.2928   0.1776
   57  118   1       0.2846   0.1042
   57  120   1       0.1147   0.0000
   57  122   1       0.3515   0.0064
   57  124   1       0.3780   0.0046
   57  132   1       0.2160   0.0481
   57  134   1       0.2127   0.0397
   57  136   1       0.1147   0.0000
   57  138   1       0.2729   0.1433
   57  140   1       0.1147   0.0000
   57  142   1       0.2723   0.1399
   57  144   1       0.1147   0.0000
   57  146   1       0.2707   0.1421
   57  148   1       0.1147   0.0000
   57  150   1       0.2729   0.1736
   57  152   1       0.1147   0.0000
   57  154   1       0.1147   0.0000
   57  156   1       0.1147   0.0000
   57  158   1       0.2846   0.1175
   57  160   1       0.2471   0.0445
   57  162   1       0.2846   0.1042
   57  164   1       0.2627   0.1628
   57  166   1       0.2772   0.1465
   57  168   1       0.2382   0.0445
   57  170   1       0.2846   0.1042
   57  172   1       0.2446   0.0435
   57  176   1       0.2772   0.1465
   57  178   1       0.2127   0.0445
   57  180   1       0.2772   0.1465
   57  182   1       0.1681   0.0445
   59    0   1       0.1057   0.0000
   59    2   1       0.2757   0.1042
   59    4   1       0.2757   0.1042
   59    6   1       0.2757   0.1042
   59    8   1       0.2757   0.1042
   59   10   1       0.2757   0.1042
   59   12   1       0.2757   0.1042
   59   14   1       0.2757   0.1042
   59   16   1       0.2757   0.1042
   59   18   1       0.2757   0.1042
   59   20   1       0.2757   0.1042
   59   22   1       0.2757   0.1042
   59   24   1       0.2757   0.1175
   59   26   1       0.2757   0.1175
   59   28   1       0.2757   0.1175
   59   30   1       0.2757   0.1175
   59   32   1       0.2757   0.1175
   59   34   1       0.2757   0.1175
   59   36   1       0.2757   0.1175
   59   38   1       0.2757   0.1042
   59   40   1       0.2757   0.1042
   59   42   1       0.2757   0.1042
   59   44   1       0.2584   0.2409
   59   46   1       0.2617   0.0877
   59   48   1       0.1592   0.0445
   59   50   1       0.1592   0.0445
   59   52   1       0.2382   0.0445
   59   54   1       0.2293   0.0445
   59   56   1       0.2204   0.0445
   59   58   1       0.2115   0.0445
   59   60   1       0.2357   0.0435
   59   62   1       0.2313   0.0435
   59   64   1       0.2268   0.0435
   59   66   1       0.1057   0.0000
   59   68   1       0.1592   0.0445
   59   70   1       0.1057   0.0000
   59   72   1       0.2037   0.0445
   59   74   1       0.3151   0.2247
   59   76   1       0.3258   0.1124
   59   78   1       0.2722   0.0187
   59   80   1       0.5512   0.1124
   59   82   1       0.1764   0.3361
   59   84   1       0.2682   0.1465
   59   86   1       0.2682   0.1465
   59   88   1       0.2682   0.1465
   59   90   1       0.2682   0.1465
   59   92   1       0.2682   0.1465
   59   94   1       0.2682   0.1465
   59   96   1       0.2682   0.1465
   59   98   1       0.2537   0.1628
   59  100   1       0.2537   0.1628
   59  102   1       0.2633   0.1386
   59  104   1       0.2591   0.1630
   59  106   1       0.2591   0.1630
   59  108   1       0.2558   0.1465
   59  110   1       0.2537   0.1628
   59  112   1       0.2928   0.1589
   59  114   1       0.2839   0.1776
   59  116   1       0.2839   0.1776
   59  118   1       0.2757   0.1042
   59  120   1       0.1057   0.0000
   59  122   1       0.3426   0.0064
   59  124   1       0.3691   0.0046
   59  132   1       0.2070   0.0481
   59  134   1       0.2037   0.0397
   59  136   1       0.1057   0.0000
   59  138   1       0.2640   0.1433
   59  140   1       0.1057   0.0000
   59  142   1       0.2634   0.1399
   59  144   1       0.1057   0.0000
   59  146   1       0.2617   0.1421
   59  148   1       0.1057   0.0000
   59  150   1       0.2640   0.1736
   59  152   1       0.1057   0.0000
   59  154   1       0.1057   0.0000
   59  156   1       0.1057   0.0000
   59  158   1       0.2757   0.1175
   59  160   1       0.2382   0.0445
   59  162   1       0.2757   0.1042
   59  164   1       0.2537   0.1628
   59  166   1       0.2682   0.1465
   59  168   1       0.2293   0.0445
   59  170   1       0.2757   0.1042
   59  172   1       0.2357   0.0435
   59  176   1       0.2682   0.1465
   59  178   1       0.2037   0.0445
   59  180   1       0.2682   0.1465
   59  182   1       0.1592   0.0445
   61    0   1       0.1300   0.0000
   61    2   1       0.3000   0.1018
   61    4   1       0.3000   0.1018
   61    6   1       0.3000   0.1018
   61    8   1       0.3000   0.1018
   61   10   1       0.3000   0.1018
   61   12   1       0.3000   0.1018
   61   14   1       0.3000   0.1018
   61   16   1       0.3000   0.1018
   61   18   1       0.3000   0.1018
   61   20   1       0.3000   0.1018
   61   22   1       0.3000   0.1018
   61   24   1       0.3000   0.1149
   61   26   1       0.3000   0.1149
   61   28   1       0.3000   0.1149
   61   30   1       0.3000   0.1149
   61   32   1       0.3000   0.1149
   61   34   1       0.3000   0.1149
   61   36   1       0.3000   0.1149
   61   38   1       0.3000   0.1018
   61   40   1       0.3000   0.1018
   61   42   1       0.3000   0.1018
   61   44   1       0.2826   0.2355
   61   46   1       0.2859   0.0858
   61   48   1       0.1834   0.0435
   61   50   1       0.1834   0.0435
   61   52   1       0.2625   0.0435
   61   54   1       0.2535   0.0435
   61   56   1       0.2446   0.0435
   61   58   1       0.2357   0.0435
   61   60   1       0.2600   0.0425
   61   62   1       0.2555   0.0425
   61   64   1       0.2511   0.0425
   61   66   1       0.1300   0.0000
   61   68   1       0.1834   0.0435
   61   70   1       0.1300   0.0000
   61   72   1       0.2280   0.0435
   61   74   1       0.3393   0.2196
   61   76   1       0.3500   0.1098
   61   78   1       0.2964   0.0183
   61   80   1       0.5754   0.1098
   61   82   1       0.2006   0.3285
   61   84   1       0.2925   0.1432
   61   86   1       0.2925   0.1432
   61   88   1       0.2925   0.1432
   61   90   1       0.2925   0.1432
   61   92   1       0.2925   0.1432
   61   94   1       0.2925   0.1432
   61   96   1       0.2925   0.1432
   61   98   1       0.2780   0.1591
   61  100   1       0.2780   0.1591
   61  102   1       0.2875   0.1354
   61  104   1       0.2833   0.1593
   61  106   1       0.2833   0.1593
   61  108   1       0.2800   0.1432
   61  110   1       0.2780   0.1591
   61  112   1       0.3171   0.1553
   61  114   1       0.3082   0.1736
   61  116   1       0.3082   0.1736
   61  118   1       0.3000   0.1018
   61  120   1       0.1300   0.0000
   61  122   1       0.3668   0.0063
   61  124   1       0.3933   0.0045
   61  132   1       0.2313   0.0470
   61  134   1       0.2280   0.0388
   61  136   1       0.1300   0.0000
   61  138   1       0.2882   0.1401
   61  140   1       0.1300   0.0000
   61  142   1       0.2877   0.1367
   61  144   1       0.1300   0.0000
   61  146   1       0.2860   0.1389
   61  148   1       0.1300   0.0000
   61  150   1       0.2882   0.1697
   61  152   1       0.1300   0.0000
   61  154   1       0.1300   0.0000
   61  156   1       0.1300   0.0000
   61  158   1       0.3000   0.1149
   61  160   1       0.2625   0.0435
   61  162   1       0.3000   0.1018
   61  164   1       0.2780   0.1591
   61  166   1       0.2925   0.1432
   61  168   1       0.2535   0.0435
   61  170   1       0.3000   0.1018
   61  172   1       0.2600   0.0425
   61  176   1       0.2925   0.1432
   61  178   1       0.2280   0.0435
   61  180   1       0.2925   0.1432
   61  182   1       0.1834   0.0435
   63    0   1       0.1255   0.0000
   63    2   1       0.2955   0.1018
   63    4   1       0.2955   0.1018
   63    6   1       0.2955   0.1018
   63    8   1       0.2955   0.1018
   63   10   1       0.2955   0.1018
   63   12   1       0.2955   0.1018
   63   14   1       0.2955   0.1018
   63   16   1       0.2955   0.1018
   63   18   1       0.2955   0.1018
   63   20   1       0.2955   0.1018
   63   22   1       0.2955   0.1018
   63   24   1       0.2955   0.1149
   63   26   1       0.2955   0.1149
   63   28   1       0.2955   0.1149
   63   30   1       0.2955   0.1149
   63   32   1       0.2955   0.1149
   63   34   1       0.2955   0.1149
   63   36   1       0.2955   0.1149
   63   38   1       0.2955   0.1018
   63   40   1       0.2955   0.1018
   63   42   1       0.2955   0.1018
   63   44   1       0.2781   0.2355
   63   46   1       0.2814   0.0858
   63   48   1       0.1790   0.0435
   63   50   1       0.1790   0.0435
   63   52   1       0.2580   0.0435
   63   54   1       0.2491   0.0435
   63   56   1       0.2402   0.0435
   63   58   1       0.2313   0.0435
   63   60   1       0.2555   0.0425
   63   62   1       0.2511   0.0425
   63   64   1       0.2466   0.0425
   63   66   1       0.1255   0.0000
   63   68   1       0.1790   0.0435
   63   70   1       0.1255   0.0000
   63   72   1       0.2235   0.0435
   63   74   1       0.3349   0.2196
   63   76   1       0.3456   0.1098
   63   78   1       0.2919   0.0183
   63   80   1       0.5710   0.1098
   63   82   1       0.1961   0.3285
   63   84   1       0.2880   0.1432
   63   86   1       0.2880   0.1432
   63   88   1       0.2880   0.1432
   63   90   1       0.2880   0.1432
   63   92   1       0.2880   0.1432
   63   94   1       0.2880   0.1432
   63   96   1       0.2880   0.1432
   63   98   1       0.2735   0.1591
   63  100   1       0.2735   0.1591
   63  102   1       0.2831   0.1354
   63  104   1       0.2789   0.1593
   63  106   1       0.2789   0.1593
   63  108   1       0.2755   0.1432
   63  110   1       0.2735   0.1591
   63  112   1       0.3126   0.1553
   63  114   1       0.3037   0.1736
   63  116   1       0.3037   0.1736
   63  118   1       0.2955   0.1018
   63  120   1       0.1255   0.0000
   63  122   1       0.3623   0.0063
   63  124   1       0.3889   0.0045
   63  132   1       0.2268   0.0470
   63  134   1       0.2235   0.0388
   63  136   1       0.1255   0.0000
   63  138   1       0.2837   0.1401
   63  140   1       0.1255   0.0000
   63  142   1       0.2832   0.1367
   63  144   1       0.1255   0.0000
   63  146   1       0.2815   0.1389
   63  148   1       0.1255   0.0000
   63  150   1       0.2838   0.1697
   63  152   1       0.1255   0.0000
   63  154   1       0.1255   0.0000
   63  156   1       0.1255   0.0000
   63  158   1       0.2955   0.1149
   63  160   1       0.2580   0.0435
   63  162   1       0.2955   0.1018
   63  164   1       0.2735   0.1591
   63  166   1       0.2880   0.1432
   63  168   1       0.2491   0.0435
   63  170   1       0.2955   0.1018
   63  172   1       0.2555   0.0425
   63  176   1       0.2880   0.1432
   63  178   1       0.2235   0.0435
   63  180   1       0.2880   0.1432
   63  182   1       0.1790   0.0435
   65    0   1       0.1211   0.0000
   65    2   1       0.2911   0.1018
   65    4   1       0.2911   0.1018
   65    6   1       0.2911   0.1018
   65    8   1       0.2911   0.1018
   65   10   1       0.2911   0.1018
   65   12   1       0.2911   0.1018
   65   14   1       0.2911   0.1018
   65   16   1       0.2911   0.1018
   65   18   1       0.2911   0.1018
   65   20   1       0.2911   0.1018
   65   22   1       0.2911   0.1018
   65   24   1       0.2911   0.1149
   65   26   1       0.2911   0.1149
   65   28   1       0.2911   0.1149
   65   30   1       0.2911   0.1149
   65   32   1       0.2911   0.1149
   65   34   1       0.2911   0.1149
   65   36   1       0.2911   0.1149
   65   38   1       0.2911   0.1018
   65   40   1       0.2911   0.1018
   65   42   1       0.2911   0.1018
   65   44   1       0.2737   0.2355
   65   46   1       0.2770   0.0858
   65   48   1       0.1745   0.0435
   65   50   1       0.1745   0.0435
   65   52   1       0.2535   0.0435
   65   54   1       0.2446   0.0435
   65   56   1       0.2357   0.0435
   65   58   1       0.2268   0.0435
   65   60   1       0.2511   0.0425
   65   62   1       0.2466   0.0425
   65   64   1       0.2421   0.0425
   65   66   1       0.1211   0.0000
   65   68   1       0.1745   0.0435
   65   70   1       0.1211   0.0000
   65   72   1       0.2191   0.0435
   65   74   1       0.3304   0.2196
   65   76   1       0.3411   0.1098
   65   78   1       0.2875   0.0183
   65   80   1       0.5665   0.1098
   65   82   1       0.1917   0.3285
   65   84   1       0.2836   0.1432
   65   86   1       0.2836   0.1432
   65   88   1       0.2836   0.1432
   65   90   1       0.2836   0.1432
   65   92   1       0.2836   0.1432
   65   94   1       0.2836   0.1432
   65   96   1       0.2836   0.1432
   65   98   1       0.2691   0.1591
   65  100   1       0.2691   0.1591
   65  102   1       0.2786   0.1354
   65  104   1       0.2744   0.1593
   65  106   1       0.2744   0.1593
   65  108   1       0.2711   0.1432
   65  110   1       0.2691   0.1591
   65  112   1       0.3082   0.1553
   65  114   1       0.2993   0.1736
   65  116   1       0.2993   0.1736
   65  118   1       0.2911   0.1018
   65  120   1       0.1211   0.0000
   65  122   1       0.3579   0.0063
   65  124   1       0.3844   0.0045
   65  132   1       0.2224   0.0470
   65  134   1       0.2191   0.0388
   65  136   1       0.1211   0.0000
   65  138   1       0.2793   0.1401
   65  140   1       0.1211   0.0000
   65  142   1       0.2788   0.1367
   65  144   1       0.1211   0.0000
   65  146   1       0.2771   0.1389
   65  148   1       0.1211   0.0000
   65  150   1       0.2793   0.1697
   65  152   1       0.1211   0.0000
   65  154   1       0.1211   0.0000
   65  156   1       0.1211   0.0000
   65  158   1       0.2911   0.1149
   65  160   1       0.2535   0.0435
   65  162   1       0.2911   0.1018
   65  164   1       0.2691   0.1591
   65  166   1       0.2836   0.1432
   65  168   1       0.2446   0.0435
   65  170   1       0.2911   0.1018
   65  172   1       0.2511   0.0425
   65  176   1       0.2836   0.1432
   65  178   1       0.2191   0.0435
   65  180   1       0.2836   0.1432
   65  182   1       0.1745   0.0435
   67    0   1       0.0000   0.0000
   67    2   1       0.1700   0.0000
   67    4   1       0.1700   0.0000
   67    6   1       0.1700   0.0000
   67    8   1       0.1700   0.0000
   67   10   1       0.1700   0.0000
   67   12   1       0.1700   0.0000
   67   14   1       0.1700   0.0000
   67   16   1       0.1700   0.0000
   67   18   1       0.1700   0.0000
   67   20   1       0.1700   0.0000
   67   22   1       0.1700   0.0000
   67   24   1       0.1700   0.0000
   67   26   1       0.1700   0.0000
   67   28   1       0.1700   0.0000
   67   30   1       0.1700   0.0000
   67   32   1       0.1700   0.0000
   67   34   1       0.1700   0.0000
   67   36   1       0.1700   0.0000
   67   38   1       0.1700   0.0000
   67   40   1       0.1700   0.0000
   67   42   1       0.1700   0.0000
   67   44   1       0.1526   0.0000
   67   46   1       0.1559   0.0000
   67   48   1       0.0535   0.0000
   67   50   1       0.0535   0.0000
   67   52   1       0.1325   0.0000
   67   54   1       0.1236   0.0000
   67   56   1       0.1147   0.0000
   67   58   1       0.1057   0.0000
   67   60   1       0.1300   0.0000
   67   62   1       0.1255   0.0000
   67   64   1       0.1211   0.0000
   67   66   1       0.0000   0.0000
   67   68   1       0.0535   0.0000
   67   70   1       0.0000   0.0000
   67   72   1       0.0980   0.0000
   67   74   1       0.2094   0.0000
   67   76   1       0.2201   0.0000
   67   78   1       0.1664   0.0000
   67   80   1       0.4454   0.0000
   67   82   1       0.0706   0.0000
   67   84   1       0.1625   0.0000
   67   86   1       0.1625   0.0000
   67   88   1       0.1625   0.0000
   67   90   1       0.1625   0.0000
   67   92   1       0.1625   0.0000
   67   94   1       0.1625   0.0000
   67   96   1       0.1625   0.0000
   67   98   1       0.1480   0.0000
   67  100   1       0.1480   0.0000
   67  102   1       0.1575   0.0000
   67  104   1       0.1533   0.0000
   67  106   1       0.1533   0.0000
   67  108   1       0.1500   0.0000
   67  110   1       0.1480   0.0000
   67  112   1       0.1871   0.0000
   67  114   1       0.1782   0.0000
   67  116   1       0.1782   0.0000
   67  118   1       0.1700   0.0000
   67  120   1       0.0000   0.0000
   67  122   1       0.2368   0.0000
   67  124   1       0.2633   0.0000
   67  132   1       0.1013   0.0000
   67  134   1       0.0980   0.0000
   67  136   1       0.0000   0.0000
   67  138   1       0.1582   0.0000
   67  140   1       0.0000   0.0000
   67  142   1       0.1577   0.0000
   67  144   1       0.0000   0.0000
   67  146   1       0.1560   0.0000
   67  148   1       0.0000   0.0000
   67  150   1       0.1583   0.0000
   67  152   1       0.0000   0.0000
   67  154   1       0.0000   0.0000
   67  156   1       0.0000   0.0000
   67  158   1       0.1700   0.0000
   67  160   1       0.1325   0.0000
   67  162   1       0.1700   0.0000
   67  164   1       0.1480   0.0000
   67  166   1       0.1625   0.0000
   67  168   1       0.1236   0.0000
   67  170   1       0.1700   0.0000
   67  172   1       0.1300   0.0000
   67  176   1       0.1625   0.0000
   67  178   1       0.0980   0.0000
   67  180   1       0.1625   0.0000
   67  182   1       0.0535   0.0000
   69    0   1       0.0535   0.0000
   69    2   1       0.2234   0.1042
   69    4   1       0.2234   0.1042
   69    6   1       0.2234   0.1042
   69    8   1       0.2234   0.1042
   69   10   1       0.2234   0.1042
   69   12   1       0.2234   0.1042
   69   14   1       0.2234   0.1042
   69   16   1       0.2234   0.1042
   69   18   1       0.2234   0.1042
   69   20   1       0.2234   0.1042
   69   22   1       0.2234   0.1042
   69   24   1       0.2234   0.1175
   69   26   1       0.2234   0.1175
   69   28   1       0.2234   0.1175
   69   30   1       0.2234   0.1175
   69   32   1       0.2234   0.1175
   69   34   1       0.2234   0.1175
   69   36   1       0.2234   0.1175
   69   38   1       0.2234   0.1042
   69   40   1       0.2234   0.1042
   69   42   1       0.2234   0.1042
   69   44   1       0.2061   0.2409
   69   46   1       0.2094   0.0877
   69   48   1       0.1069   0.0445
   69   50   1       0.1069   0.0445
   69   52   1       0.1859   0.0445
   69   54   1       0.1770   0.0445
   69   56   1       0.1681   0.0445
   69   58   1       0.1592   0.0445
   69   60   1       0.1834   0.0435
   69   62   1       0.1790   0.0435
   69   64   1       0.1745   0.0435
   69   66   1       0.0535   0.0000
   69   68   1       0.1069   0.0445
   69   70   1       0.0535   0.0000
   69   72   1       0.1515   0.0445
   69   74   1       0.2628   0.2247
   69   76   1       0.2735   0.1124
   69   78   1       0.2199   0.0187
   69   80   1       0.4989   0.1124
   69   82   1       0.1241   0.3361
   69   84   1       0.2160   0.1465
   69   86   1       0.2160   0.1465
   69   88   1       0.2160   0.1465
   69   90   1       0.2160   0.1465
   69   92   1       0.2160   0.1465
   69   94   1       0.2160   0.1465
   69   96   1       0.2160   0.1465
   69   98   1       0.2014   0.1628
   69  100   1       0.2014   0.1628
   69  102   1       0.2110   0.1386
   69  104   1       0.2068   0.1630
   69  106   1       0.2068   0.1630
   69  108   1       0.2035   0.1465
   69  110   1       0.2014   0.1628
   69  112   1       0.2405   0.1589
   69  114   1       0.2316   0.1776
   69  116   1       0.2316   0.1776
   69  118   1       0.2234   0.1042
   69  120   1       0.0535   0.0000
   69  122   1       0.2903   0.0064
   69  124   1       0.3168   0.0046
   69  132   1       0.1547   0.0481
   69  134   1       0.1515   0.0397
   69  136   1       0.0535   0.0000
   69  138   1       0.2117   0.1433
   69  140   1       0.0535   0.0000
   69  142   1       0.2111   0.1399
   69  144   1       0.0535   0.0000
   69  146   1       0.2095   0.1421
   69  148   1       0.0535   0.0000
   69  150   1       0.2117   0.1736
   69  152   1       0.0535   0.0000
   69  154   1       0.0535   0.0000
   69  156   1       0.0535   0.0000
   69  158   1       0.2234   0.1175
   69  160   1       0.1859   0.0445
   69  162   1       0.2234   0.1042
   69  164   1       0.2014   0.1628
   69  166   1       0.2160   0.1465
   69  168   1       0.1770   0.0445
   69  170   1       0.2234   0.1042
   69  172   1       0.1834   0.0435
   69  176   1       0.2160   0.1465
   69  178   1       0.1515   0.0445
   69  180   1       0.2160   0.1465
   69  182   1       0.1069   0.0445
   71    0   1       0.0000   0.0000
   71    2   1       0.1700   0.0000
   71    4   1       0.1700   0.0000
   71    6   1       0.1700   0.0000
   71    8   1       0.1700   0.0000
   71   10   1       0.1700   0.0000
   71   12   1       0.1700   0.0000
   71   14   1       0.1700   0.0000
   71   16   1       0.1700   0.0000
   71   18   1       0.1700   0.0000
   71   20   1       0.1700   0.0000
   71   22   1       0.1700   0.0000
   71   24   1       0.1700   0.0000
   71   26   1       0.1700   0.0000
   71   28   1       0.1700   0.0000
   71   30   1       0.1700   0.0000
   71   32   1       0.1700   0.0000
   71   34   1       0.1700   0.0000
   71   36   1       0.1700   0.0000
   71   38   1       0.1700   0.0000
   71   40   1       0.1700   0.0000
   71   42   1       0.1700   0.0000
   71   44   1       0.1526   0.0000
   71   46   1       0.1559   0.0000
   71   48   1       0.0535   0.0000
   71   50   1       0.0535   0.0000
   71   52   1       0.1325   0.0000
   71   54   1       0.1236   0.0000
   71   56   1       0.1147   0.0000
   71   58   1       0.1057   0.0000
   71   60   1       0.1300   0.0000
   71   62   1       0.1255   0.0000
   71   64   1       0.1211   0.0000
   71   66   1       0.0000   0.0000
   71   68   1       0.0535   0.0000
   71   70   1       0.0000   0.0000
   71   72   1       0.0980   0.0000
   71   74   1       0.2094   0.0000
   71   76   1       0.2201   0.0000
   71   78   1       0.1664   0.0000
   71   80   1       0.4454   0.0000
   71   82   1       0.0706   0.0000
   71   84   1       0.1625   0.0000
   71   86   1       0.1625   0.0000
   71   88   1       0.1625   0.0000
   71   90   1       0.1625   0.0000
   71   92   1       0.1625   0.0000
   71   94   1       0.1625   0.0000
   71   96   1       0.1625   0.0000
   71   98   1       0.1480   0.0000
   71  100   1       0.1480   0.0000
   71  102   1       0.1575   0.0000
   71  104   1       0.1533   0.0000
   71  106   1       0.1533   0.0000
   71  108   1       0.1500   0.0000
   71  110   1       0.1480   0.0000
   71  112   1       0.1871   0.0000
   71  114   1       0.1782   0.0000
   71  116   1       0.1782   0.0000
   71  118   1       0.1700   0.0000
   71  120   1       0.0000   0.0000
   71  122   1       0.2368   0.0000
   71  124   1       0.2633   0.0000
   71  132   1       0.1013   0.0000
   71  134   1       0.0980   0.0000
   71  136   1       0.0000   0.0000
   71  138   1       0.1582   0.0000
   71  140   1       0.0000   0.0000
   71  142   1       0.1577   0.0000
   71  144   1       0.0000   0.0000
   71  146   1       0.1560   0.0000
   71  148   1       0.0000   0.0000
   71  150   1       0.1583   0.0000
   71  152   1       0.0000   0.0000
   71  154   1       0.0000   0.0000
   71  156   1       0.0000   0.0000
   71  158   1       0.1700   0.0000
   71  160   1       0.1325   0.0000
   71  162   1       0.1700   0.0000
   71  164   1       0.1480   0.0000
   71  166   1       0.1625   0.0000
   71  168   1       0.1236   0.0000
   71  170   1       0.1700   0.0000
   71  172   1       0.1300   0.0000
   71  176   1       0.1625   0.0000
   71  178   1       0.0980   0.0000
   71  180   1       0.1625   0.0000
   71  182   1       0.0535   0.0000
   73    0   1       0.0980   0.0000
   73    2   1       0.2680   0.1042
   73    4   1       0.2680   0.1042
   73    6   1       0.2680   0.1042
   73    8   1       0.2680   0.1042
   73   10   1       0.2680   0.1042
   73   12   1       0.2680   0.1042
   73   14   1       0.2680   0.1042
   73   16   1       0.2680   0.1042
   73   18   1       0.2680   0.1042
   73   20   1       0.2680   0.1042
   73   22   1       0.2680   0.1042
   73   24   1       0.2680   0.1175
   73   26   1       0.2680   0.1175
   73   28   1       0.2680   0.1175
   73   30   1       0.2680   0.1175
   73   32   1       0.2680   0.1175
   73   34   1       0.2680   0.1175
   73   36   1       0.2680   0.1175
   73   38   1       0.2680   0.1042
   73   40   1       0.2680   0.1042
   73   42   1       0.2680   0.1042
   73   44   1       0.2506   0.2409
   73   46   1       0.2539   0.0877
   73   48   1       0.1515   0.0445
   73   50   1       0.1515   0.0445
   73   52   1       0.2305   0.0445
   73   54   1       0.2216   0.0445
   73   56   1       0.2127   0.0445
   73   58   1       0.2037   0.0445
   73   60   1       0.2280   0.0435
   73   62   1       0.2235   0.0435
   73   64   1       0.2191   0.0435
   73   66   1       0.0980   0.0000
   73   68   1       0.1515   0.0445
   73   70   1       0.0980   0.0000
   73   72   1       0.1960   0.0445
   73   74   1       0.3074   0.2247
   73   76   1       0.3181   0.1124
   73   78   1       0.2644   0.0187
   73   80   1       0.5434   0.1124
   73   82   1       0.1686   0.3361
   73   84   1       0.2605   0.1465
   73   86   1       0.2605   0.1465
   73   88   1       0.2605   0.1465
   73   90   1       0.2605   0.1465
   73   92   1       0.2605   0.1465
   73   94   1       0.2605   0.1465
   73   96   1       0.2605   0.1465
   73   98   1       0.2460   0.1628
   73  100   1       0.2460   0.1628
   73  102   1       0.2555   0.1386
   73  104   1       0.2513   0.1630
   73  106   1       0.2513   0.1630
   73  108   1       0.2480   0.1465
   73  110   1       0.2460   0.1628
   73  112   1       0.2851   0.1589
   73  114   1       0.2762   0.1776
   73  116   1       0.2762   0.1776
   73  118   1       0.2680   0.1042
   73  120   1       0.0980   0.0000
   73  122   1       0.3348   0.0064
   73  124   1       0.3613   0.0046
   73  132   1       0.1993   0.0481
   73  134   1       0.1960   0.0397
   73  136   1       0.0980   0.0000
   73  138   1       0.2562   0.1433
   73  140   1       0.0980   0.0000
   73  142   1       0.2557   0.1399
   73  144   1       0.0980   0.0000
   73  146   1       0.2540   0.1421
   73  148   1       0.0980   0.0000
   73  150   1       0.2562   0.1736
   73  152   1       0.0980   0.0000
   73  154   1       0.0980   0.0000
   73  156   1       0.0980   0.0000
   73  158   1       0.2680   0.1175
   73  160   1       0.2305   0.0445
   73  162   1       0.2680   0.1042
   73  164   1       0.2460   0.1628
   73  166   1       0.2605   0.1465
   73  168   1       0.2216   0.0445
   73  170   1       0.2680   0.1042
   73  172   1       0.2280   0.0435
   73  176   1       0.2605   0.1465
   73  178   1       0.1960   0.0445
   73  180   1       0.2605   0.1465
   73  182   1       0.1515   0.0445
   75    0   1       0.2094   0.0000
   75    2   1       0.3793   0.5259
   75    4   1       0.3793   0.5259
   75    6   1       0.3793   0.5259
   75    8   1       0.3793   0.5259
   75   10   1       0.3793   0.5259
   75   12   1       0.3793   0.5259
   75   14   1       0.3793   0.5259
   75   16   1       0.3793   0.5259
   75   18   1       0.3793   0.5259
   75   20   1       0.3793   0.5259
   75   22   1       0.3793   0.5259
   75   24   1       0.3793   0.5931
   75   26   1       0.3793   0.5931
   75   28   1       0.3793   0.5931
   75   30   1       0.3793   0.5931
   75   32   1       0.3793   0.5931
   75   34   1       0.3793   0.5931
   75   36   1       0.3793   0.5931
   75   38   1       0.3793   0.5259
   75   40   1       0.3793   0.5259
   75   42   1       0.3793   0.5259
   75   44   1       0.3620   1.2160
   75   46   1       0.3653   0.4429
   75   48   1       0.2628   0.2247
   75   50   1       0.2628   0.2247
   75   52   1       0.3418   0.2247
   75   54   1       0.3329   0.2247
   75   56   1       0.3240   0.2247
   75   58   1       0.3151   0.2247
   75   60   1       0.3393   0.2196
   75   62   1       0.3349   0.2196
   75   64   1       0.3304   0.2196
   75   66   1       0.2094   0.0000
   75   68   1       0.2628   0.2247
   75   70   1       0.2094   0.0000
   75   72   1       0.3074   0.2247
   75   74   1       0.4187   1.1342
   75   76   1       0.4294   0.5671
   75   78   1       0.3758   0.0944
   75   80   1       0.6548   0.5671
   75   82   1       0.2800   1.6963
   75   84   1       0.3719   0.7394
   75   86   1       0.3719   0.7394
   75   88   1       0.3719   0.7394
   75   90   1       0.3719   0.7394
   75   92   1       0.3719   0.7394
   75   94   1       0.3719   0.7394
   75   96   1       0.3719   0.7394
   75   98   1       0.3574   0.8218
   75  100   1       0.3574   0.8218
   75  102   1       0.3669   0.6994
   75  104   1       0.3627   0.8226
   75  106   1       0.3627   0.8226
   75  108   1       0.3594   0.7394
   75  110   1       0.3574   0.8218
   75  112   1       0.3964   0.8020
   75  114   1       0.3875   0.8967
   75  116   1       0.3875   0.8967
   75  118   1       0.3793   0.5259
   75  120   1       0.2094   0.0000
   75  122   1       0.4462   0.0325
   75  124   1       0.4727   0.0234
   75  132   1       0.3107   0.2426
   75  134   1       0.3074   0.2005
   75  136   1       0.2094   0.0000
   75  138   1       0.3676   0.7235
   75  140   1       0.2094   0.0000
   75  142   1       0.3670   0.7060
   75  144   1       0.2094   0.0000
   75  146   1       0.3654   0.7173
   75  148   1       0.2094   0.0000
   75  150   1       0.3676   0.8763
   75  152   1       0.2094   0.0000
   75  154   1       0.2094   0.0000
   75  156   1       0.2094   0.0000
   75  158   1       0.3793   0.5931
   75  160   1       0.3418   0.2247
   75  162   1       0.3793   0.5259
   75  164   1       0.3574   0.8218
   75  166   1       0.3719   0.7394
   75  168   1       0.3329   0.2247
   75  170   1       0.3793   0.5259
   75  172   1       0.3393   0.2196
   75  176   1       0.3719   0.7394
   75  178   1       0.3074   0.2247
   75  180   1       0.3719   0.7394
   75  182   1       0.2628   0.2247
   77    0   1       0.2201   0.0000
   77    2   1       0.3900   0.2630
   77    4   1       0.3900   0.2630
   77    6   1       0.3900   0.2630
   77    8   1       0.3900   0.2630
   77   10   1       0.3900   0.2630
   77   12   1       0.3900   0.2630
   77   14   1       0.3900   0.2630
   77   16   1       0.3900   0.2630
   77   18   1       0.3900   0.2630
   77   20   1       0.3900   0.2630
   77   22   1       0.3900   0.2630
   77   24   1       0.3900   0.2966
   77   26   1       0.3900   0.2966
   77   28   1       0.3900   0.2966
   77   30   1       0.3900   0.2966
   77   32   1       0.3900   0.2966
   77   34   1       0.3900   0.2966
   77   36   1       0.3900   0.2966
   77   38   1       0.3900   0.2630
   77   40   1       0.3900   0.2630
   77   42   1       0.3900   0.2630
   77   44   1       0.3727   0.6080
   77   46   1       0.3760   0.2215
   77   48   1       0.2735   0.1124
   77   50   1       0.2735   0.1124
   77   52   1       0.3525   0.1124
   77   54   1       0.3436   0.1124
   77   56   1       0.3347   0.1124
   77   58   1       0.3258   0.1124
   77   60   1       0.3500   0.1098
   77   62   1       0.3456   0.1098
   77   64   1       0.3411   0.1098
   77   66   1       0.2201   0.0000
   77   68   1       0.2735   0.1124
   77   70   1       0.2201   0.0000
   77   72   1       0.3181   0.1124
   77   74   1       0.4294   0.5671
   77   76   1       0.4401   0.2835
   77   78   1       0.3865   0.0472
   77   80   1       0.6655   0.2835
   77   82   1       0.2907   0.8481
   77   84   1       0.3826   0.3697
   77   86   1       0.3826   0.3697
   77   88   1       0.3826   0.3697
   77   90   1       0.3826   0.3697
   77   92   1       0.3826   0.3697
   77   94   1       0.3826   0.3697
   77   96   1       0.3826   0.3697
   77   98   1       0.3680   0.4109
   77  100   1       0.3680   0.4109
   77  102   1       0.3776   0.3497
   77  104   1       0.3734   0.4113
   77  106   1       0.3734   0.4113
   77  108   1       0.3701   0.3697
   77  110   1       0.3680   0.4109
   77  112   1       0.4071   0.4010
   77  114   1       0.3982   0.4483
   77  116   1       0.3982   0.4483
   77  118   1       0.3900   0.2630
   77  120   1       0.2201   0.0000
   77  122   1       0.4569   0.0162
   77  124   1       0.4834   0.0117
   77  132   1       0.3213   0.1213
   77  134   1       0.3181   0.1002
   77  136   1       0.2201   0.0000
   77  138   1       0.3783   0.3617
   77  140   1       0.2201   0.0000
   77  142   1       0.3777   0.3530
   77  144   1       0.2201   0.0000
   77  146   1       0.3761   0.3587
   77  148   1       0.2201   0.0000
   77  150   1       0.3783   0.4381
   77  152   1       0.2201   0.0000
   77  154   1       0.2201   0.0000
   77  156   1       0.2201   0.0000
   77  158   1       0.3900   0.2966
   77  160   1       0.3525   0.1124
   77  162   1       0.3900   0.2630
   77  164   1       0.3680   0.4109
   77  166   1       0.3826   0.3697
   77  168   1       0.3436   0.1124
   77  170   1       0.3900   0.2630
   77  172   1       0.3500   0.1098
   77  176   1       0.3826   0.3697
   77  178   1       0.3181   0.1124
   77  180   1       0.3826   0.3697
   77  182   1       0.2735   0.1124
   79    0   1       0.1664   0.0000
   79    2   1       0.3364   0.0438
   79    4   1       0.3364   0.0438
   79    6   1       0.3364   0.0438
   79    8   1       0.3364   0.0438
   79   10   1       0.3364   0.0438
   79   12   1       0.3364   0.0438
   79   14   1       0.3364   0.0438
   79   16   1       0.3364   0.0438
   79   18   1       0.3364   0.0438
   79   20   1       0.3364   0.0438
   79   22   1       0.3364   0.0438
   79   24   1       0.3364   0.0494
   79   26   1       0.3364   0.0494
   79   28   1       0.3364   0.0494
   79   30   1       0.3364   0.0494
   79   32   1       0.3364   0.0494
   79   34   1       0.3364   0.0494
   79   36   1       0.3364   0.0494
   79   38   1       0.3364   0.0438
   79   40   1       0.3364   0.0438
   79   42   1       0.3364   0.0438
   79   44   1       0.3190   0.1012
   79   46   1       0.3223   0.0369
   79   48   1       0.2199   0.0187
   79   50   1       0.2199   0.0187
   79   52   1       0.2989   0.0187
   79   54   1       0.2900   0.0187
   79   56   1       0.2811   0.0187
   79   58   1       0.2722   0.0187
   79   60   1       0.2964   0.0183
   79   62   1       0.2919   0.0183
   79   64   1       0.2875   0.0183
   79   66   1       0.1664   0.0000
   79   68   1       0.2199   0.0187
   79   70   1       0.1664   0.0000
   79   72   1       0.2644   0.0187
   79   74   1       0.3758   0.0944
   79   76   1       0.3865   0.0472
   79   78   1       0.3328   0.0079
   79   80   1       0.6119   0.0472
   79   82   1       0.2370   0.1412
   79   84   1       0.3289   0.0615
   79   86   1       0.3289   0.0615
   79   88   1       0.3289   0.0615
   79   90   1       0.3289   0.0615
   79   92   1       0.3289   0.0615
   79   94   1       0.3289   0.0615
   79   96   1       0.3289   0.0615
   79   98   1       0.3144   0.0684
   79  100   1       0.3144   0.0684
   79  102   1       0.3240   0.0582
   79  104   1       0.3197   0.0685
   79  106   1       0.3197   0.0685
   79  108   1       0.3164   0.0615
   79  110   1       0.3144   0.0684
   79  112   1       0.3535   0.0667
   79  114   1       0.3446   0.0746
   79  116   1       0.3446   0.0746
   79  118   1       0.3364   0.0438
   79  120   1       0.1664   0.0000
   79  122   1       0.4032   0.0027
   79  124   1       0.4298   0.0019
   79  132   1       0.2677   0.0202
   79  134   1       0.2644   0.0167
   79  136   1       0.1664   0.0000
   79  138   1       0.3246   0.0602
   79  140   1       0.1664   0.0000
   79  142   1       0.3241   0.0588
   79  144   1       0.1664   0.0000
   79  146   1       0.3224   0.0597
   79  148   1       0.1664   0.0000
   79  150   1       0.3247   0.0729
   79  152   1       0.1664   0.0000
   79  154   1       0.1664   0.0000
   79  156   1       0.1664   0.0000
   79  158   1       0.3364   0.0494
   79  160   1       0.2989   0.0187
   79  162   1       0.3364   0.0438
   79  164   1       0.3144   0.0684
   79  166   1       0.3289   0.0615
   79  168   1       0.2900   0.0187
   79  170   1       0.3364   0.0438
   79  172   1       0.2964   0.0183
   79  176   1       0.3289   0.0615
   79  178   1       0.2644   0.0187
   79  180   1       0.3289   0.0615
   79  182   1       0.2199   0.0187
   81    0   1       0.4454   0.0000
   81    2   1       0.6154   0.2630
   81    4   1       0.6154   0.2630
   81    6   1       0.6154   0.2630
   81    8   1       0.6154   0.2630
   81   10   1       0.6154   0.2630
   81   12   1       0.6154   0.2630
   81   14   1       0.6154   0.2630
   81   16   1       0.6154   0.2630
   81   18   1       0.6154   0.2630
   81   20   1       0.6154   0.2630
   81   22   1       0.6154   0.2630
   81   24   1       0.6154   0.2966
   81   26   1       0.6154   0.2966
   81   28   1       0.6154   0.2966
   81   30   1       0.6154   0.2966
   81   32   1       0.6154   0.2966
   81   34   1       0.6154   0.2966
   81   36   1       0.6154   0.2966
   81   38   1       0.6154   0.2630
   81   40   1       0.6154   0.2630
   81   42   1       0.6154   0.2630
   81   44   1       0.5981   0.6080
   81   46   1       0.6014   0.2215
   81   48   1       0.4989   0.1124
   81   50   1       0.4989   0.1124
   81   52   1       0.5779   0.1124
   81   54   1       0.5690   0.1124
   81   56   1       0.5601   0.1124
   81   58   1       0.5512   0.1124
   81   60   1       0.5754   0.1098
   81   62   1       0.5710   0.1098
   81   64   1       0.5665   0.1098
   81   66   1       0.4454   0.0000
   81   68   1       0.4989   0.1124
   81   70   1       0.4454   0.0000
   81   72   1       0.5434   0.1124
   81   74   1       0.6548   0.5671
   81   76   1       0.6655   0.2835
   81   78   1       0.6119   0.0472
   81   80   1       0.8909   0.2835
   81   82   1       0.5161   0.8481
   81   84   1       0.6079   0.3697
   81   86   1       0.6079   0.3697
   81   88   1       0.6079   0.3697
   81   90   1       0.6079   0.3697
   81   92   1       0.6079   0.3697
   81   94   1       0.6079   0.3697
   81   96   1       0.6079   0.3697
   81   98   1       0.5934   0.4109
   81  100   1       0.5934   0.4109
   81  102   1       0.6030   0.3497
   81  104   1       0.5988   0.4113
   81  106   1       0.5988   0.4113
   81  108   1       0.5954   0.3697
   81  110   1       0.5934   0.4109
   81  112   1       0.6325   0.4010
   81  114   1       0.6236   0.4483
   81  116   1       0.6236   0.4483
   81  118   1       0.6154   0.2630
   81  120   1       0.4454   0.0000
   81  122   1       0.6823   0.0162
   81  124   1       0.7088   0.0117
   81  132   1       0.5467   0.1213
   81  134   1       0.5434   0.1002
   81  136   1       0.4454   0.0000
   81  138   1       0.6037   0.3617
   81  140   1       0.4454   0.0000
   81  142   1       0.6031   0.3530
   81  144   1       0.4454   0.0000
   81  146   1       0.6014   0.3587
   81  148   1       0.4454   0.0000
   81  150   1       0.6037   0.4381
   81  152   1       0.4454   0.0000
   81  154   1       0.4454   0.0000
   81  156   1       0.4454   0.0000
   81  158   1       0.6154   0.2966
   81  160   1       0.5779   0.1124
   81  162   1       0.6154   0.2630
   81  164   1       0.5934   0.4109
   81  166   1       0.6079   0.3697
   81  168   1       0.5690   0.1124
   81  170   1       0.6154   0.2630
   81  172   1       0.5754   0.1098
   81  176   1       0.6079   0.3697
   81  178   1       0.5434   0.1124
   81  180   1       0.6079   0.3697
   81  182   1       0.4989   0.1124
   83    0   1       0.0706   0.0000
   83    2   1       0.2406   0.7865
   83    4   1       0.2406   0.7865
   83    6   1       0.2406   0.7865
   83    8   1       0.2406   0.7865
   83   10   1       0.2406   0.7865
   83   12   1       0.2406   0.7865
   83   14   1       0.2406   0.7865
   83   16   1       0.2406   0.7865
   83   18   1       0.2406   0.7865
   83   20   1       0.2406   0.7865
   83   22   1       0.2406   0.7865
   83   24   1       0.2406   0.8871
   83   26   1       0.2406   0.8871
   83   28   1       0.2406   0.8871
   83   30   1       0.2406   0.8871
   83   32   1       0.2406   0.8871
   83   34   1       0.2406   0.8871
   83   36   1       0.2406   0.8871
   83   38   1       0.2406   0.7865
   83   40   1       0.2406   0.7865
   83   42   1       0.2406   0.7865
   83   44   1       0.2232   1.8186
   83   46   1       0.2265   0.6624
   83   48   1       0.1241   0.3361
   83   50   1       0.1241   0.3361
   83   52   1       0.2031   0.3361
   83   54   1       0.1942   0.3361
   83   56   1       0.1853   0.3361
   83   58   1       0.1764   0.3361
   83   60   1       0.2006   0.3285
   83   62   1       0.1961   0.3285
   83   64   1       0.1917   0.3285
   83   66   1       0.0706   0.0000
   83   68   1       0.1241   0.3361
   83   70   1       0.0706   0.0000
   83   72   1       0.1686   0.3361
   83   74   1       0.2800   1.6963
   83   76   1       0.2907   0.8481
   83   78   1       0.2370   0.1412
   83   80   1       0.5161   0.8481
   83   82   1       0.1412   2.5369
   83   84   1       0.2331   1.1058
   83   86   1       0.2331   1.1058
   83   88   1       0.2331   1.1058
   83   90   1       0.2331   1.1058
   83   92   1       0.2331   1.1058
   83   94   1       0.2331   1.1058
   83   96   1       0.2331   1.1058
   83   98   1       0.2186   1.2291
   83  100   1       0.2186   1.2291
   83  102   1       0.2281   1.0460
   83  104   1       0.2239   1.2302
   83  106   1       0.2239   1.2302
   83  108   1       0.2206   1.1058
   83  110   1       0.2186   1.2291
   83  112   1       0.2577   1.1994
   83  114   1       0.2488   1.3410
   83  116   1       0.2488   1.3410
   83  118   1       0.2406   0.7865
   83  120   1       0.0706   0.0000
   83  122   1       0.3074   0.0486
   83  124   1       0.3340   0.0350
   83  132   1       0.1719   0.3628
   83  134   1       0.1686   0.2999
   83  136   1       0.0706   0.0000
   83  138   1       0.2288   1.0820
   83  140   1       0.0706   0.0000
   83  142   1       0.2283   1.0559
   83  144   1       0.0706   0.0000
   83  146   1       0.2266   1.0728
   83  148   1       0.0706   0.0000
   83  150   1       0.2289   1.3105
   83  152   1       0.0706   0.0000
   83  154   1       0.0706   0.0000
   83  156   1       0.0706   0.0000
   83  158   1       0.2406   0.8871
   83  160   1       0.2031   0.3361
   83  162   1       0.2406   0.7865
   83  164   1       0.2186   1.2291
   83  166   1       0.2331   1.1058
   83  168   1       0.1942   0.3361
   83  170   1       0.2406   0.7865
   83  172   1       0.2006   0.3285
   83  176   1       0.2331   1.1058
   83  178   1       0.1686   0.3361
   83  180   1       0.2331   1.1058
   83  182   1       0.1241   0.3361
   85    0   1       0.1625   0.0000
   85    2   1       0.3325   0.3428
   85    4   1       0.3325   0.3428
   85    6   1       0.3325   0.3428
   85    8   1       0.3325   0.3428
   85   10   1       0.3325   0.3428
   85   12   1       0.3325   0.3428
   85   14   1       0.3325   0.3428
   85   16   1       0.3325   0.3428
   85   18   1       0.3325   0.3428
   85   20   1       0.3325   0.3428
   85   22   1       0.3325   0.3428
   85   24   1       0.3325   0.3867
   85   26   1       0.3325   0.3867
   85   28   1       0.3325   0.3867
   85   30   1       0.3325   0.3867
   85   32   1       0.3325   0.3867
   85   34   1       0.3325   0.3867
   85   36   1       0.3325   0.3867
   85   38   1       0.3325   0.3428
   85   40   1       0.3325   0.3428
   85   42   1       0.3325   0.3428
   85   44   1       0.3151   0.7927
   85   46   1       0.3184   0.2887
   85   48   1       0.2160   0.1465
   85   50   1       0.2160   0.1465
   85   52   1       0.2950   0.1465
   85   54   1       0.2861   0.1465
   85   56   1       0.2772   0.1465
   85   58   1       0.2682   0.1465
   85   60   1       0.2925   0.1432
   85   62   1       0.2880   0.1432
   85   64   1       0.2836   0.1432
   85   66   1       0.1625   0.0000
   85   68   1       0.2160   0.1465
   85   70   1       0.1625   0.0000
   85   72   1       0.2605   0.1465
   85   74   1       0.3719   0.7394
   85   76   1       0.3826   0.3697
   85   78   1       0.3289   0.0615
   85   80   1       0.6079   0.3697
   85   82   1       0.2331   1.1058
   85   84   1       0.3250   0.4820
   85   86   1       0.3250   0.4820
   85   88   1       0.3250   0.4820
   85   90   1       0.3250   0.4820
   85   92   1       0.3250   0.4820
   85   94   1       0.3250   0.4820
   85   96   1       0.3250   0.4820
   85   98   1       0.3105   0.5357
   85  100   1       0.3105   0.5357
   85  102   1       0.3200   0.4559
   85  104   1       0.3158   0.5363
   85  106   1       0.3158   0.5363
   85  108   1       0.3125   0.4820
   85  110   1       0.3105   0.5357
   85  112   1       0.3496   0.5228
   85  114   1       0.3407   0.5845
   85  116   1       0.3407   0.5845
   85  118   1       0.3325   0.3428
   85  120   1       0.1625   0.0000
   85  122   1       0.3993   0.0212
   85  124   1       0.4258   0.0152
   85  132   1       0.2638   0.1582
   85  134   1       0.2605   0.1307
   85  136   1       0.1625   0.0000
   85  138   1       0.3207   0.4716
   85  140   1       0.1625   0.0000
   85  142   1       0.3202   0.4603
   85  144   1       0.1625   0.0000
   85  146   1       0.3185   0.4676
   85  148   1       0.1625   0.0000
   85  150   1       0.3207   0.5713
   85  152   1       0.1625   0.0000
   85  154   1       0.1625   0.0000
   85  156   1       0.1625   0.0000
   85  158   1       0.3325   0.3867
   85  160   1       0.2950   0.1465
   85  162   1       0.3325   0.3428
   85  164   1       0.3105   0.5357
   85  166   1       0.3250   0.4820
   85  168   1       0.2861   0.1465
   85  170   1       0.3325   0.3428
   85  172   1       0.2925   0.1432
   85  176   1       0.3250   0.4820
   85  178   1       0.2605   0.1465
   85  180   1       0.3250   0.4820
   85  182   1       0.2160   0.1465
   87    0   1       0.1625   0.0000
   87    2   1       0.3325   0.3428
   87    4   1       0.3325   0.3428
   87    6   1       0.3325   0.3428
   87    8   1       0.3325   0.3428
   87   10   1       0.3325   0.3428
   87   12   1       0.3325   0.3428
   87   14   1       0.3325   0.3428
   87   16   1       0.3325   0.3428
   87   18   1       0.3325   0.3428
   87   20   1       0.3325   0.3428
   87   22   1       0.3325   0.3428
   87   24   1       0.3325   0.3867
   87   26   1       0.3325   0.3867
   87   28   1       0.3325   0.3867
   87   30   1       0.3325   0.3867
   87   32   1       0.3325   0.3867
   87   34   1       0.3325   0.3867
   87   36   1       0.3325   0.3867
   87   38   1       0.3325   0.3428
   87   40   1       0.3325   0.3428
   87   42   1       0.3325   0.3428
   87   44   1       0.3151   0.7927
   87   46   1       0.3184   0.2887
   87   48   1       0.2160   0.1465
   87   50   1       0.2160   0.1465
   87   52   1       0.2950   0.1465
   87   54   1       0.2861   0.1465
   87   56   1       0.2772   0.1465
   87   58   1       0.2682   0.1465
   87   60   1       0.2925   0.1432
   87   62   1       0.2880   0.1432
   87   64   1       0.2836   0.1432
   87   66   1       0.1625   0.0000
   87   68   1       0.2160   0.1465
   87   70   1       0.1625   0.0000
   87   72   1       0.2605   0.1465
   87   74   1       0.3719   0.7394
   87   76   1       0.3826   0.3697
   87   78   1       0.3289   0.0615
   87   80   1       0.6079   0.3697
   87   82   1       0.2331   1.1058
   87   84   1       0.3250   0.4820
   87   86   1       0.3250   0.4820
   87   88   1       0.3250   0.4820
   87   90   1       0.3250   0.4820
   87   92   1       0.3250   0.4820
   87   94   1       0.3250   0.4820
   87   96   1       0.3250   0.4820
   87   98   1       0.3105   0.5357
   87  100   1       0.3105   0.5357
   87  102   1       0.3200   0.4559
   87  104   1       0.3158   0.5363
   87  106   1       0.3158   0.5363
   87  108   1       0.3125   0.4820
   87  110   1       0.3105   0.5357
   87  112   1       0.3496   0.5228
   87  114   1       0.3407   0.5845
   87  116   1       0.3407   0.5845
   87  118   1       0.3325   0.3428
   87  120   1       0.1625   0.0000
   87  122   1       0.3993   0.0212
   87  124   1       0.4258   0.0152
   87  132   1       0.2638   0.1582
   87  134   1       0.2605   0.1307
   87  136   1       0.1625   0.0000
   87  138   1       0.3207   0.4716
   87  140   1       0.1625   0.0000
   87  142   1       0.3202   0.4603
   87  144   1       0.1625   0.0000
   87  146   1       0.3185   0.4676
   87  148   1       0.1625   0.0000
   87  150   1       0.3207   0.5713
   87  152   1       0.1625   0.0000
   87  154   1       0.1625   0.0000
   87  156   1       0.1625   0.0000
   87  158   1       0.3325   0.3867
   87  160   1       0.2950   0.1465
   87  162   1       0.3325   0.3428
   87  164   1       0.3105   0.5357
   87  166   1       0.3250   0.4820
   87  168   1       0.2861   0.1465
   87  170   1       0.3325   0.3428
   87  172   1       0.2925   0.1432
   87  176   1       0.3250   0.4820
   87  178   1       0.2605   0.1465
   87  180   1       0.3250   0.4820
   87  182   1       0.2160   0.1465
   89    0   1       0.1625   0.0000
   89    2   1       0.3325   0.3428
   89    4   1       0.3325   0.3428
   89    6   1       0.3325   0.3428
   89    8   1       0.3325   0.3428
   89   10   1       0.3325   0.3428
   89   12   1       0.3325   0.3428
   89   14   1       0.3325   0.3428
   89   16   1       0.3325   0.3428
   89   18   1       0.3325   0.3428
   89   20   1       0.3325   0.3428
   89   22   1       0.3325   0.3428
   89   24   1       0.3325   0.3867
   89   26   1       0.3325   0.3867
   89   28   1       0.3325   0.3867
   89   30   1       0.3325   0.3867
   89   32   1       0.3325   0.3867
   89   34   1       0.3325   0.3867
   89   36   1       0.3325   0.3867
   89   38   1       0.3325   0.3428
   89   40   1       0.3325   0.3428
   89   42   1       0.3325   0.3428
   89   44   1       0.3151   0.7927
   89   46   1       0.3184   0.2887
   89   48   1       0.2160   0.1465
   89   50   1       0.2160   0.1465
   89   52   1       0.2950   0.1465
   89   54   1       0.2861   0.1465
   89   56   1       0.2772   0.1465
   89   58   1       0.2682   0.1465
   89   60   1       0.2925   0.1432
   89   62   1       0.2880   0.1432
   89   64   1       0.2836   0.1432
   89   66   1       0.1625   0.0000
   89   68   1       0.2160   0.1465
   89   70   1       0.1625   0.0000
   89   72   1       0.2605   0.1465
   89   74   1       0.3719   0.7394
   89   76   1       0.3826   0.3697
   89   78   1       0.3289   0.0615
   89   80   1       0.6079   0.3697
   89   82   1       0.2331   1.1058
   89   84   1       0.3250   0.4820
   89   86   1       0.3250   0.4820
   89   88   1       0.3250   0.4820
   89   90   1       0.3250   0.4820
   89   92   1       0.3250   0.4820
   89   94   1       0.3250   0.4820
   89   96   1       0.3250   0.4820
   89   98   1       0.3105   0.5357
   89  100   1       0.3105   0.5357
   89  102   1       0.3200   0.4559
   89  104   1       0.3158   0.5363
   89  106   1       0.3158   0.5363
   89  108   1       0.3125   0.4820
   89  110   1       0.3105   0.5357
   89  112   1       0.3496   0.5228
   89  114   1       0.3407   0.5845
   89  116   1       0.3407   0.5845
   89  118   1       0.3325   0.3428
   89  120   1       0.1625   0.0000
   89  122   1       0.3993   0.0212
   89  124   1       0.4258   0.0152
   89  132   1       0.2638   0.1582
   89  134   1       0.2605   0.1307
   89  136   1       0.1625   0.0000
   89  138   1       0.3207   0.4716
   89  140   1       0.1625   0.0000
   89  142   1       0.3202   0.4603
   89  144   1       0.1625   0.0000
   89  146   1       0.3185   0.4676
   89  148   1       0.1625   0.0000
   89  150   1       0.3207   0.5713
   89  152   1       0.1625   0.0000
   89  154   1       0.1625   0.0000
   89  156   1       0.1625   0.0000
   89  158   1       0.3325   0.3867
   89  160   1       0.2950   0.1465
   89  162   1       0.3325   0.3428
   89  164   1       0.3105   0.5357
   89  166   1       0.3250   0.4820
   89  168   1       0.2861   0.1465
   89  170   1       0.3325   0.3428
   89  172   1       0.2925   0.1432
   89  176   1       0.3250   0.4820
   89  178   1       0.2605   0.1465
   89  180   1       0.3250   0.4820
   89  182   1       0.2160   0.1465
   91    0   1       0.1625   0.0000
   91    2   1       0.3325   0.3428
   91    4   1       0.3325   0.3428
   91    6   1       0.3325   0.3428
   91    8   1       0.3325   0.3428
   91   10   1       0.3325   0.3428
   91   12   1       0.3325   0.3428
   91   14   1       0.3325   0.3428
   91   16   1       0.3325   0.3428
   91   18   1       0.3325   0.3428
   91   20   1       0.3325   0.3428
   91   22   1       0.3325   0.3428
   91   24   1       0.3325   0.3867
   91   26   1       0.3325   0.3867
   91   28   1       0.3325   0.3867
   91   30   1       0.3325   0.3867
   91   32   1       0.3325   0.3867
   91   34   1       0.3325   0.3867
   91   36   1       0.3325   0.3867
   91   38   1       0.3325   0.3428
   91   40   1       0.3325   0.3428
   91   42   1       0.3325   0.3428
   91   44   1       0.3151   0.7927
   91   46   1       0.3184   0.2887
   91   48   1       0.2160   0.1465
   91   50   1       0.2160   0.1465
   91   52   1       0.2950   0.1465
   91   54   1       0.2861   0.1465
   91   56   1       0.2772   0.1465
   91   58   1       0.2682   0.1465
   91   60   1       0.2925   0.1432
   91   62   1       0.2880   0.1432
   91   64   1       0.2836   0.1432
   91   66   1       0.1625   0.0000
   91   68   1       0.2160   0.1465
   91   70   1       0.1625   0.0000
   91   72   1       0.2605   0.1465
   91   74   1       0.3719   0.7394
   91   76   1       0.3826   0.3697
   91   78   1       0.3289   0.0615
   91   80   1       0.6079   0.3697
   91   82   1       0.2331   1.1058
   91   84   1       0.3250   0.4820
   91   86   1       0.3250   0.4820
   91   88   1       0.3250   0.4820
   91   90   1       0.3250   0.4820
   91   92   1       0.3250   0.4820
   91   94   1       0.3250   0.4820
   91   96   1       0.3250   0.4820
   91   98   1       0.3105   0.5357
   91  100   1       0.3105   0.5357
   91  102   1       0.3200   0.4559
   91  104   1       0.3158   0.5363
   91  106   1       0.3158   0.5363
   91  108   1       0.3125   0.4820
   91  110   1       0.3105   0.5357
   91  112   1       0.3496   0.5228
   91  114   1       0.3407   0.5845
   91  116   1       0.3407   0.5845
   91  118   1       0.3325   0.3428
   91  120   1       0.1625   0.0000
   91  122   1       0.3993   0.0212
   91  124   1       0.4258   0.0152
   91  132   1       0.2638   0.1582
   91  134   1       0.2605   0.1307
   91  136   1       0.1625   0.0000
   91  138   1       0.3207   0.4716
   91  140   1       0.1625   0.0000
   91  142   1       0.3202   0.4603
   91  144   1       0.1625   0.0000
   91  146   1       0.3185   0.4676
   91  148   1       0.1625   0.0000
   91  150   1       0.3207   0.5713
   91  152   1       0.1625   0.0000
   91  154   1       0.1625   0.0000
   91  156   1       0.1625   0.0000
   91  158   1       0.3325   0.3867
   91  160   1       0.2950   0.1465
   91  162   1       0.3325   0.3428
   91  164   1       0.3105   0.5357
   91  166   1       0.3250   0.4820
   91  168   1       0.2861   0.1465
   91  170   1       0.3325   0.3428
   91  172   1       0.2925   0.1432
   91  176   1       0.3250   0.4820
   91  178   1       0.2605   0.1465
   91  180   1       0.3250   0.4820
   91  182   1       0.2160   0.1465
   93    0   1       0.1625   0.0000
   93    2   1       0.3325   0.3428
   93    4   1       0.3325   0.3428
   93    6   1       0.3325   0.3428
   93    8   1       0.3325   0.3428
   93   10   1       0.3325   0.3428
   93   12   1       0.3325   0.3428
   93   14   1       0.3325   0.3428
   93   16   1       0.3325   0.3428
   93   18   1       0.3325   0.3428
   93   20   1       0.3325   0.3428
   93   22   1       0.3325   0.3428
   93   24   1       0.3325   0.3867
   93   26   1       0.3325   0.3867
   93   28   1       0.3325   0.3867
   93   30   1       0.3325   0.3867
   93   32   1       0.3325   0.3867
   93   34   1       0.3325   0.3867
   93   36   1       0.3325   0.3867
   93   38   1       0.3325   0.3428
   93   40   1       0.3325   0.3428
   93   42   1       0.3325   0.3428
   93   44   1       0.3151   0.7927
   93   46   1       0.3184   0.2887
   93   48   1       0.2160   0.1465
   93   50   1       0.2160   0.1465
   93   52   1       0.2950   0.1465
   93   54   1       0.2861   0.1465
   93   56   1       0.2772   0.1465
   93   58   1       0.2682   0.1465
   93   60   1       0.2925   0.1432
   93   62   1       0.2880   0.1432
   93   64   1       0.2836   0.1432
   93   66   1       0.1625   0.0000
   93   68   1       0.2160   0.1465
   93   70   1       0.1625   0.0000
   93   72   1       0.2605   0.1465
   93   74   1       0.3719   0.7394
   93   76   1       0.3826   0.3697
   93   78   1       0.3289   0.0615
   93   80   1       0.6079   0.3697
   93   82   1       0.2331   1.1058
   93   84   1       0.3250   0.4820
   93   86   1       0.3250   0.4820
   93   88   1       0.3250   0.4820
   93   90   1       0.3250   0.4820
   93   92   1       0.3250   0.4820
   93   94   1       0.3250   0.4820
   93   96   1       0.3250   0.4820
   93   98   1       0.3105   0.5357
   93  100   1       0.3105   0.5357
   93  102   1       0.3200   0.4559
   93  104   1       0.3158   0.5363
   93  106   1       0.3158   0.5363
   93  108   1       0.3125   0.4820
   93  110   1       0.3105   0.5357
   93  112   1       0.3496   0.5228
   93  114   1       0.3407   0.5845
   93  116   1       0.3407   0.5845
   93  118   1       0.3325   0.3428
   93  120   1       0.1625   0.0000
   93  122   1       0.3993   0.0212
   93  124   1       0.4258   0.0152
   93  132   1       0.2638   0.1582
   93  134   1       0.2605   0.1307
   93  136   1       0.1625   0.0000
   93  138   1       0.3207   0.4716
   93  140   1       0.1625   0.0000
   93  142   1       0.3202   0.4603
   93  144   1       0.1625   0.0000
   93  146   1       0.3185   0.4676
   93  148   1       0.1625   0.0000
   93  150   1       0.3207   0.5713
   93  152   1       0.1625   0.0000
   93  154   1       0.1625   0.0000
   93  156   1       0.1625   0.0000
   93  158   1       0.3325   0.3867
   93  160   1       0.2950   0.1465
   93  162   1       0.3325   0.3428
   93  164   1       0.3105   0.5357
   93  166   1       0.3250   0.4820
   93  168   1       0.2861   0.1465
   93  170   1       0.3325   0.3428
   93  172   1       0.2925   0.1432
   93  176   1       0.3250   0.4820
   93  178   1       0.2605   0.1465
   93  180   1       0.3250   0.4820
   93  182   1       0.2160   0.1465
   95    0   1       0.1625   0.0000
   95    2   1       0.3325   0.3428
   95    4   1       0.3325   0.3428
   95    6   1       0.3325   0.3428
   95    8   1       0.3325   0.3428
   95   10   1       0.3325   0.3428
   95   12   1       0.3325   0.3428
   95   14   1       0.3325   0.3428
   95   16   1       0.3325   0.3428
   95   18   1       0.3325   0.3428
   95   20   1       0.3325   0.3428
   95   22   1       0.3325   0.3428
   95   24   1       0.3325   0.3867
   95   26   1       0.3325   0.3867
   95   28   1       0.3325   0.3867
   95   30   1       0.3325   0.3867
   95   32   1       0.3325   0.3867
   95   34   1       0.3325   0.3867
   95   36   1       0.3325   0.3867
   95   38   1       0.3325   0.3428
   95   40   1       0.3325   0.3428
   95   42   1       0.3325   0.3428
   95   44   1       0.3151   0.7927
   95   46   1       0.3184   0.2887
   95   48   1       0.2160   0.1465
   95   50   1       0.2160   0.1465
   95   52   1       0.2950   0.1465
   95   54   1       0.2861   0.1465
   95   56   1       0.2772   0.1465
   95   58   1       0.2682   0.1465
   95   60   1       0.2925   0.1432
   95   62   1       0.2880   0.1432
   95   64   1       0.2836   0.1432
   95   66   1       0.1625   0.0000
   95   68   1       0.2160   0.1465
   95   70   1       0.1625   0.0000
   95   72   1       0.2605   0.1465
   95   74   1       0.3719   0.7394
   95   76   1       0.3826   0.3697
   95   78   1       0.3289   0.0615
   95   80   1       0.6079   0.3697
   95   82   1       0.2331   1.1058
   95   84   1       0.3250   0.4820
   95   86   1       0.3250   0.4820
   95   88   1       0.3250   0.4820
   95   90   1       0.3250   0.4820
   95   92   1       0.3250   0.4820
   95   94   1       0.3250   0.4820
   95   96   1       0.3250   0.4820
   95   98   1       0.3105   0.5357
   95  100   1       0.3105   0.5357
   95  102   1       0.3200   0.4559
   95  104   1       0.3158   0.5363
   95  106   1       0.3158   0.5363
   95  108   1       0.3125   0.4820
   95  110   1       0.3105   0.5357
   95  112   1       0.3496   0.5228
   95  114   1       0.3407   0.5845
   95  116   1       0.3407   0.5845
   95  118   1       0.3325   0.3428
   95  120   1       0.1625   0.0000
   95  122   1       0.3993   0.0212
   95  124   1       0.4258   0.0152
   95  132   1       0.2638   0.1582
   95  134   1       0.2605   0.1307
   95  136   1       0.1625   0.0000
   95  138   1       0.3207   0.4716
   95  140   1       0.1625   0.0000
   95  142   1       0.3202   0.4603
   95  144   1       0.1625   0.0000
   95  146   1       0.3185   0.4676
   95  148   1       0.1625   0.0000
   95  150   1       0.3207   0.5713
   95  152   1       0.1625   0.0000
   95  154   1       0.1625   0.0000
   95  156   1       0.1625   0.0000
   95  158   1       0.3325   0.3867
   95  160   1       0.2950   0.1465
   95  162   1       0.3325   0.3428
   95  164   1       0.3105   0.5357
   95  166   1       0.3250   0.4820
   95  168   1       0.2861   0.1465
   95  170   1       0.3325   0.3428
   95  172   1       0.2925   0.1432
   95  176   1       0.3250   0.4820
   95  178   1       0.2605   0.1465
   95  180   1       0.3250   0.4820
   95  182   1       0.2160   0.1465
   97    0   1       0.1625   0.0000
   97    2   1       0.3325   0.3428
   97    4   1       0.3325   0.3428
   97    6   1       0.3325   0.3428
   97    8   1       0.3325   0.3428
   97   10   1       0.3325   0.3428
   97   12   1       0.3325   0.3428
   97   14   1       0.3325   0.3428
   97   16   1       0.3325   0.3428
   97   18   1       0.3325   0.3428
   97   20   1       0.3325   0.3428
   97   22   1       0.3325   0.3428
   97   24   1       0.3325   0.3867
   97   26   1       0.3325   0.3867
   97   28   1       0.3325   0.3867
   97   30   1       0.3325   0.3867
   97   32   1       0.3325   0.3867
   97   34   1       0.3325   0.3867
   97   36   1       0.3325   0.3867
   97   38   1       0.3325   0.3428
   97   40   1       0.3325   0.3428
   97   42   1       0.3325   0.3428
   97   44   1       0.3151   0.7927
   97   46   1       0.3184   0.2887
   97   48   1       0.2160   0.1465
   97   50   1       0.2160   0.1465
   97   52   1       0.2950   0.1465
   97   54   1       0.2861   0.1465
   97   56   1       0.2772   0.1465
   97   58   1       0.2682   0.1465
   97   60   1       0.2925   0.1432
   97   62   1       0.2880   0.1432
   97   64   1       0.2836   0.1432
   97   66   1       0.1625   0.0000
   97   68   1       0.2160   0.1465
   97   70   1       0.1625   0.0000
   97   72   1       0.2605   0.1465
   97   74   1       0.3719   0.7394
   97   76   1       0.3826   0.3697
   97   78   1       0.3289   0.0615
   97   80   1       0.6079   0.3697
   97   82   1       0.2331   1.1058
   97   84   1       0.3250   0.4820
   97   86   1       0.3250   0.4820
   97   88   1       0.3250   0.4820
   97   90   1       0.3250   0.4820
   97   92   1       0.3250   0.4820
   97   94   1       0.3250   0.4820
   97   96   1       0.3250   0.4820
   97   98   1       0.3105   0.5357
   97  100   1       0.3105   0.5357
   97  102   1       0.3200   0.4559
   97  104   1       0.3158   0.5363
   97  106   1       0.3158   0.5363
   97  108   1       0.3125   0.4820
   97  110   1       0.3105   0.5357
   97  112   1       0.3496   0.5228
   97  114   1       0.3407   0.5845
   97  116   1       0.3407   0.5845
   97  118   1       0.3325   0.3428
   97  120   1       0.1625   0.0000
   97  122   1       0.3993   0.0212
   97  124   1       0.4258   0.0152
   97  132   1       0.2638   0.1582
   97  134   1       0.2605   0.1307
   97  136   1       0.1625   0.0000
   97  138   1       0.3207   0.4716
   97  140   1       0.1625   0.0000
   97  142   1       0.3202   0.4603
   97  144   1       0.1625   0.0000
   97  146   1       0.3185   0.4676
   97  148   1       0.1625   0.0000
   97  150   1       0.3207   0.5713
   97  152   1       0.1625   0.0000
   97  154   1       0.1625   0.0000
   97  156   1       0.1625   0.0000
   97  158   1       0.3325   0.3867
   97  160   1       0.2950   0.1465
   97  162   1       0.3325   0.3428
   97  164   1       0.3105   0.5357
   97  166   1       0.3250   0.4820
   97  168   1       0.2861   0.1465
   97  170   1       0.3325   0.3428
   97  172   1       0.2925   0.1432
   97  176   1       0.3250   0.4820
   97  178   1       0.2605   0.1465
   97  180   1       0.3250   0.4820
   97  182   1       0.2160   0.1465
   99    0   1       0.1480   0.0000
   99    2   1       0.3180   0.3811
   99    4   1       0.3180   0.3811
   99    6   1       0.3180   0.3811
   99    8   1       0.3180   0.3811
   99   10   1       0.3180   0.3811
   99   12   1       0.3180   0.3811
   99   14   1       0.3180   0.3811
   99   16   1       0.3180   0.3811
   99   18   1       0.3180   0.3811
   99   20   1       0.3180   0.3811
   99   22   1       0.3180   0.3811
   99   24   1       0.3180   0.4298
   99   26   1       0.3180   0.4298
   99   28   1       0.3180   0.4298
   99   30   1       0.3180   0.4298
   99   32   1       0.3180   0.4298
   99   34   1       0.3180   0.4298
   99   36   1       0.3180   0.4298
   99   38   1       0.3180   0.3811
   99   40   1       0.3180   0.3811
   99   42   1       0.3180   0.3811
   99   44   1       0.3006   0.8811
   99   46   1       0.3039   0.3209
   99   48   1       0.2014   0.1628
   99   50   1       0.2014   0.1628
   99   52   1       0.2805   0.1628
   99   54   1       0.2716   0.1628
   99   56   1       0.2627   0.1628
   99   58   1       0.2537   0.1628
   99   60   1       0.2780   0.1591
   99   62   1       0.2735   0.1591
   99   64   1       0.2691   0.1591
   99   66   1       0.1480   0.0000
   99   68   1       0.2014   0.1628
   99   70   1       0.1480   0.0000
   99   72   1       0.2460   0.1628
   99   74   1       0.3574   0.8218
   99   76   1       0.3680   0.4109
   99   78   1       0.3144   0.0684
   99   80   1       0.5934   0.4109
   99   82   1       0.2186   1.2291
   99   84   1       0.3105   0.5357
   99   86   1       0.3105   0.5357
   99   88   1       0.3105   0.5357
   99   90   1       0.3105   0.5357
   99   92   1       0.3105   0.5357
   99   94   1       0.3105   0.5357
   99   96   1       0.3105   0.5357
   99   98   1       0.2960   0.5954
   99  100   1       0.2960   0.5954
   99  102   1       0.3055   0.5068
   99  104   1       0.3013   0.5960
   99  106   1       0.3013   0.5960
   99  108   1       0.2980   0.5357
   99  110   1       0.2960   0.5954
   99  112   1       0.3351   0.5811
   99  114   1       0.3262   0.6497
   99  116   1       0.3262   0.6497
   99  118   1       0.3180   0.3811
   99  120   1       0.1480   0.0000
   99  122   1       0.3848   0.0235
   99  124   1       0.4113   0.0169
   99  132   1       0.2493   0.1758
   99  134   1       0.2460   0.1453
   99  136   1       0.1480   0.0000
   99  138   1       0.3062   0.5242
   99  140   1       0.1480   0.0000
   99  142   1       0.3057   0.5116
   99  144   1       0.1480   0.0000
   99  146   1       0.3040   0.5198
   99  148   1       0.1480   0.0000
   99  150   1       0.3062   0.6349
   99  152   1       0.1480   0.0000
   99  154   1       0.1480   0.0000
   99  156   1       0.1480   0.0000
   99  158   1       0.3180   0.4298
   99  160   1       0.2805   0.1628
   99  162   1       0.3180   0.3811
   99  164   1       0.2960   0.5954
   99  166   1       0.3105   0.5357
   99  168   1       0.2716   0.1628
   99  170   1       0.3180   0.3811
   99  172   1       0.2780   0.1591
   99  176   1       0.3105   0.5357
   99  178   1       0.2460   0.1628
   99  180   1       0.3105   0.5357
   99  182   1       0.2014   0.1628
  101    0   1       0.1480   0.0000
  101    2   1       0.3180   0.3811
  101    4   1       0.3180   0.3811
  101    6   1       0.3180   0.3811
  101    8   1       0.3180   0.3811
  101   10   1       0.3180   0.3811
  101   12   1       0.3180   0.3811
  101   14   1       0.3180   0.3811
  101   16   1       0.3180   0.3811
  101   18   1       0.3180   0.3811
  101   20   1       0.3180   0.3811
  101   22   1       0.3180   0.3811
  101   24   1       0.3180   0.4298
  101   26   1       0.3180   0.4298
  101   28   1       0.3180   0.4298
  101   30   1       0.3180   0.4298
  101   32   1       0.3180   0.4298
  101   34   1       0.3180   0.4298
  101   36   1       0.3180   0.4298
  101   38   1       0.3180   0.3811
  101   40   1       0.3180   0.3811
  101   42   1       0.3180   0.3811
  101   44   1       0.3006   0.8811
  101   46   1       0.3039   0.3209
  101   48   1       0.2014   0.1628
  101   50   1       0.2014   0.1628
  101   52   1       0.2805   0.1628
  101   54   1       0.2716   0.1628
  101   56   1       0.2627   0.1628
  101   58   1       0.2537   0.1628
  101   60   1       0.2780   0.1591
  101   62   1       0.2735   0.1591
  101   64   1       0.2691   0.1591
  101   66   1       0.1480   0.0000
  101   68   1       0.2014   0.1628
  101   70   1       0.1480   0.0000
  101   72   1       0.2460   0.1628
  101   74   1       0.3574   0.8218
  101   76   1       0.3680   0.4109
  101   78   1       0.3144   0.0684
  101   80   1       0.5934   0.4109
  101   82   1       0.2186   1.2291
  101   84   1       0.3105   0.5357
  101   86   1       0.3105   0.5357
  101   88   1       0.3105   0.5357
  101   90   1       0.3105   0.5357
  101   92   1       0.3105   0.5357
  101   94   1       0.3105   0.5357
  101   96   1       0.3105   0.5357
  101   98   1       0.2960   0.5954
  101  100   1       0.2960   0.5954
  101  102   1       0.3055   0.5068
  101  104   1       0.3013   0.5960
  101  106   1       0.3013   0.5960
  101  108   1       0.2980   0.5357
  101  110   1       0.2960   0.5954
  101  112   1       0.3351   0.5811
  101  114   1       0.3262   0.6497
  101  116   1       0.3262   0.6497
  101  118   1       0.3180   0.3811
  101  120   1       0.1480   0.0000
  101  122   1       0.3848   0.0235
  101  124   1       0.4113   0.0169
  101  132   1       0.2493   0.1758
  101  134   1       0.2460   0.1453
  101  136   1       0.1480   0.0000
  101  138   1       0.3062   0.5242
  101  140   1       0.1480   0.0000
  101  142   1       0.3057   0.5116
  101  144   1       0.1480   0.0000
  101  146   1       0.3040   0.5198
  101  148   1       0.1480   0.0000
  101  150   1       0.3062   0.6349
  101  152   1       0.1480   0.0000
  101  154   1       0.1480   0.0000
  101  156   1       0.1480   0.0000
  101  158   1       0.3180   0.4298
  101  160   1       0.2805   0.1628
  101  162   1       0.3180   0.3811
  101  164   1       0.2960   0.5954
  101  166   1       0.3105   0.5357
  101  168   1       0.2716   0.1628
  101  170   1       0.3180   0.3811
  101  172   1       0.2780   0.1591
  101  176   1       0.3105   0.5357
  101  178   1       0.2460   0.1628
  101  180   1       0.3105   0.5357
  101  182   1       0.2014   0.1628
  103    0   1       0.1575   0.0000
  103    2   1       0.3275   0.3243
  103    4   1       0.3275   0.3243
  103    6   1       0.3275   0.3243
  103    8   1       0.3275   0.3243
  103   10   1       0.3275   0.3243
  103   12   1       0.3275   0.3243
  103   14   1       0.3275   0.3243
  103   16   1       0.3275   0.3243
  103   18   1       0.3275   0.3243
  103   20   1       0.3275   0.3243
  103   22   1       0.3275   0.3243
  103   24   1       0.3275   0.3658
  103   26   1       0.3275   0.3658
  103   28   1       0.3275   0.3658
  103   30   1       0.3275   0.3658
  103   32   1       0.3275   0.3658
  103   34   1       0.3275   0.3658
  103   36   1       0.3275   0.3658
  103   38   1       0.3275   0.3243
  103   40   1       0.3275   0.3243
  103   42   1       0.3275   0.3243
  103   44   1       0.3102   0.7498
  103   46   1       0.3134   0.2731
  103   48   1       0.2110   0.1386
  103   50   1       0.2110   0.1386
  103   52   1       0.2900   0.1386
  103   54   1       0.2811   0.1386
  103   56   1       0.2722   0.1386
  103   58   1       0.2633   0.1386
  103   60   1       0.2875   0.1354
  103   62   1       0.2831   0.1354
  103   64   1       0.2786   0.1354
  103   66   1       0.1575   0.0000
  103   68   1       0.2110   0.1386
  103   70   1       0.1575   0.0000
  103   72   1       0.2555   0.1386
  103   74   1       0.3669   0.6994
  103   76   1       0.3776   0.3497
  103   78   1       0.3240   0.0582
  103   80   1       0.6030   0.3497
  103   82   1       0.2281   1.0460
  103   84   1       0.3200   0.4559
  103   86   1       0.3200   0.4559
  103   88   1       0.3200   0.4559
  103   90   1       0.3200   0.4559
  103   92   1       0.3200   0.4559
  103   94   1       0.3200   0.4559
  103   96   1       0.3200   0.4559
  103   98   1       0.3055   0.5068
  103  100   1       0.3055   0.5068
  103  102   1       0.3151   0.4313
  103  104   1       0.3109   0.5072
  103  106   1       0.3109   0.5072
  103  108   1       0.3075   0.4559
  103  110   1       0.3055   0.5068
  103  112   1       0.3446   0.4945
  103  114   1       0.3357   0.5529
  103  116   1       0.3357   0.5529
  103  118   1       0.3275   0.3243
  103  120   1       0.1575   0.0000
  103  122   1       0.3943   0.0200
  103  124   1       0.4209   0.0144
  103  132   1       0.2588   0.1496
  103  134   1       0.2555   0.1236
  103  136   1       0.1575   0.0000
  103  138   1       0.3157   0.4461
  103  140   1       0.1575   0.0000
  103  142   1       0.3152   0.4354
  103  144   1       0.1575   0.0000
  103  146   1       0.3135   0.4423
  103  148   1       0.1575   0.0000
  103  150   1       0.3158   0.5403
  103  152   1       0.1575   0.0000
  103  154   1       0.1575   0.0000
  103  156   1       0.1575   0.0000
  103  158   1       0.3275   0.3658
  103  160   1       0.2900   0.1386
  103  162   1       0.3275   0.3243
  103  164   1       0.3055   0.5068
  103  166   1       0.3200   0.4559
  103  168   1       0.2811   0.1386
  103  170   1       0.3275   0.3243
  103  172   1       0.2875   0.1354
  103  176   1       0.3200   0.4559
  103  178   1       0.2555   0.1386
  103  180   1       0.3200   0.4559
  103  182   1       0.2110   0.1386
  105    0   1       0.1533   0.0000
  105    2   1       0.3233   0.3814
  105    4   1       0.3233   0.3814
  105    6   1       0.3233   0.3814
  105    8   1       0.3233   0.3814
  105   10   1       0.3233   0.3814
  105   12   1       0.3233   0.3814
  105   14   1       0.3233   0.3814
  105   16   1       0.3233   0.3814
  105   18   1       0.3233   0.3814
  105   20   1       0.3233   0.3814
  105   22   1       0.3233   0.3814
  105   24   1       0.3233   0.4302
  105   26   1       0.3233   0.4302
  105   28   1       0.3233   0.4302
  105   30   1       0.3233   0.4302
  105   32   1       0.3233   0.4302
  105   34   1       0.3233   0.4302
  105   36   1       0.3233   0.4302
  105   38   1       0.3233   0.3814
  105   40   1       0.3233   0.3814
  105   42   1       0.3233   0.3814
  105   44   1       0.3059   0.8819
  105   46   1       0.3092   0.3212
  105   48   1       0.2068   0.1630
  105   50   1       0.2068   0.1630
  105   52   1       0.2858   0.1630
  105   54   1       0.2769   0.1630
  105   56   1       0.2680   0.1630
  105   58   1       0.2591   0.1630
  105   60   1       0.2833   0.1593
  105   62   1       0.2789   0.1593
  105   64   1       0.2744   0.1593
  105   66   1       0.1533   0.0000
  105   68   1       0.2068   0.1630
  105   70   1       0.1533   0.0000
  105   72   1       0.2513   0.1630
  105   74   1       0.3627   0.8226
  105   76   1       0.3734   0.4113
  105   78   1       0.3197   0.0685
  105   80   1       0.5988   0.4113
  105   82   1       0.2239   1.2302
  105   84   1       0.3158   0.5363
  105   86   1       0.3158   0.5363
  105   88   1       0.3158   0.5363
  105   90   1       0.3158   0.5363
  105   92   1       0.3158   0.5363
  105   94   1       0.3158   0.5363
  105   96   1       0.3158   0.5363
  105   98   1       0.3013   0.5960
  105  100   1       0.3013   0.5960
  105  102   1       0.3109   0.5072
  105  104   1       0.3066   0.5966
  105  106   1       0.3066   0.5966
  105  108   1       0.3033   0.5363
  105  110   1       0.3013   0.5960
  105  112   1       0.3404   0.5817
  105  114   1       0.3315   0.6503
  105  116   1       0.3315   0.6503
  105  118   1       0.3233   0.3814
  105  120   1       0.1533   0.0000
  105  122   1       0.3901   0.0236
  105  124   1       0.4167   0.0170
  105  132   1       0.2546   0.1759
  105  134   1       0.2513   0.1454
  105  136   1       0.1533   0.0000
  105  138   1       0.3115   0.5247
  105  140   1       0.1533   0.0000
  105  142   1       0.3110   0.5121
  105  144   1       0.1533   0.0000
  105  146   1       0.3093   0.5202
  105  148   1       0.1533   0.0000
  105  150   1       0.3116   0.6355
  105  152   1       0.1533   0.0000
  105  154   1       0.1533   0.0000
  105  156   1       0.1533   0.0000
  105  158   1       0.3233   0.4302
  105  160   1       0.2858   0.1630
  105  162   1       0.3233   0.3814
  105  164   1       0.3013   0.5960
  105  166   1       0.3158   0.5363
  105  168   1       0.2769   0.1630
  105  170   1       0.3233   0.3814
  105  172   1       0.2833   0.1593
  105  176   1       0.3158   0.5363
  105  178   1       0.2513   0.1630
  105  180   1       0.3158   0.5363
  105  182   1       0.2068   0.1630
  107    0   1       0.1533   0.0000
  107    2   1       0.3233   0.3814
  107    4   1       0.3233   0.3814
  107    6   1       0.3233   0.3814
  107    8   1       0.3233   0.3814
  107   10   1       0.3233   0.3814
  107   12   1       0.3233   0.3814
  107   14   1       0.3233   0.3814
  107   16   1       0.3233   0.3814
  107   18   1       0.3233   0.3814
  107   20   1       0.3233   0.3814
  107   22   1       0.3233   0.3814
  107   24   1       0.3233   0.4302
  107   26   1       0.3233   0.4302
  107   28   1       0.3233   0.4302
  107   30   1       0.3233   0.4302
  107   32   1       0.3233   0.4302
  107   34   1       0.3233   0.4302
  107   36   1       0.3233   0.4302
  107   38   1       0.3233   0.3814
  107   40   1       0.3233   0.3814
  107   42   1       0.3233   0.3814
  107   44   1       0.3059   0.8819
  107   46   1       0.3092   0.3212
  107   48   1       0.2068   0.1630
  107   50   1       0.2068   0.1630
  107   52   1       0.2858   0.1630
  107   54   1       0.2769   0.1630
  107   56   1       0.2680   0.1630
  107   58   1       0.2591   0.1630
  107   60   1       0.2833   0.1593
  107   62   1       0.2789   0.1593
  107   64   1       0.2744   0.1593
  107   66   1       0.1533   0.0000
  107   68   1       0.2068   0.1630
  107   70   1       0.1533   0.0000
  107   72   1       0.2513   0.1630
  107   74   1       0.3627   0.8226
  107   76   1       0.3734   0.4113
  107   78   1       0.3197   0.0685
  107   80   1       0.5988   0.4113
  107   82   1       0.2239   1.2302
  107   84   1       0.3158   0.5363
  107   86   1       0.3158   0.5363
  107   88   1       0.3158   0.5363
  107   90   1       0.3158   0.5363
  107   92   1       0.3158   0.5363
  107   94   1       0.3158   0.5363
  107   96   1       0.3158   0.5363
  107   98   1       0.3013   0.5960
  107  100   1       0.3013   0.5960
  107  102   1       0.3109   0.5072
  107  104   1       0.3066   0.5966
  107  106   1       0.3066   0.5966
  107  108   1       0.3033   0.5363
  107  110   1       0.3013   0.5960
  107  112   1       0.3404   0.5817
  107  114   1       0.3315   0.6503
  107  116   1       0.3315   0.6503
  107  118   1       0.3233   0.3814
  107  120   1       0.1533   0.0000
  107  122   1       0.3901   0.0236
  107  124   1       0.4167   0.0170
  107  132   1       0.2546   0.1759
  107  134   1       0.2513   0.1454
  107  136   1       0.1533   0.0000
  107  138   1       0.3115   0.5247
  107  140   1       0.1533   0.0000
  107  142   1       0.3110   0.5121
  107  144   1       0.1533   0.0000
  107  146   1       0.3093   0.5202
  107  148   1       0.1533   0.0000
  107  150   1       0.3116   0.6355
  107  152   1       0.1533   0.0000
  107  154   1       0.1533   0.0000
  107  156   1       0.1533   0.0000
  107  158   1       0.3233   0.4302
  107  160   1       0.2858   0.1630
  107  162   1       0.3233   0.3814
  107  164   1       0.3013   0.5960
  107  166   1       0.3158   0.5363
  107  168   1       0.2769   0.1630
  107  170   1       0.3233   0.3814
  107  172   1       0.2833   0.1593
  107  176   1       0.3158   0.5363
  107  178   1       0.2513   0.1630
  107  180   1       0.3158   0.5363
  107  182   1       0.2068   0.1630
  109    0   1       0.1500   0.0000
  109    2   1       0.3200   0.3428
  109    4   1       0.3200   0.3428
  109    6   1       0.3200   0.3428
  109    8   1       0.3200   0.3428
  109   10   1       0.3200   0.3428
  109   12   1       0.3200   0.3428
  109   14   1       0.3200   0.3428
  109   16   1       0.3200   0.3428
  109   18   1       0.3200   0.3428
  109   20   1       0.3200   0.3428
  109   22   1       0.3200   0.3428
  109   24   1       0.3200   0.3867
  109   26   1       0.3200   0.3867
  109   28   1       0.3200   0.3867
  109   30   1       0.3200   0.3867
  109   32   1       0.3200   0.3867
  109   34   1       0.3200   0.3867
  109   36   1       0.3200   0.3867
  109   38   1       0.3200   0.3428
  109   40   1       0.3200   0.3428
  109   42   1       0.3200   0.3428
  109   44   1       0.3026   0.7927
  109   46   1       0.3059   0.2887
  109   48   1       0.2035   0.1465
  109   50   1       0.2035   0.1465
  109   52   1       0.2825   0.1465
  109   54   1       0.2736   0.1465
  109   56   1       0.2647   0.1465
  109   58   1       0.2558   0.1465
  109   60   1       0.2800   0.1432
  109   62   1       0.2755   0.1432
  109   64   1       0.2711   0.1432
  109   66   1       0.1500   0.0000
  109   68   1       0.2035   0.1465
  109   70   1       0.1500   0.0000
  109   72   1       0.2480   0.1465
  109   74   1       0.3594   0.7394
  109   76   1       0.3701   0.3697
  109   78   1       0.3164   0.0615
  109   80   1       0.5954   0.3697
  109   82   1       0.2206   1.1058
  109   84   1       0.3125   0.4820
  109   86   1       0.3125   0.4820
  109   88   1       0.3125   0.4820
  109   90   1       0.3125   0.4820
  109   92   1       0.3125   0.4820
  109   94   1       0.3125   0.4820
  109   96   1       0.3125   0.4820
  109   98   1       0.2980   0.5357
  109  100   1       0.2980   0.5357
  109  102   1       0.3075   0.4559
  109  104   1       0.3033   0.5363
  109  106   1       0.3033   0.5363
  109  108   1       0.3000   0.4820
  109  110   1       0.2980   0.5357
  109  112   1       0.3371   0.5228
  109  114   1       0.3282   0.5845
  109  116   1       0.3282   0.5845
  109  118   1       0.3200   0.3428
  109  120   1       0.1500   0.0000
  109  122   1       0.3868   0.0212
  109  124   1       0.4133   0.0152
  109  132   1       0.2513   0.1582
  109  134   1       0.2480   0.1307
  109  136   1       0.1500   0.0000
  109  138   1       0.3082   0.4716
  109  140   1       0.1500   0.0000
  109  142   1       0.3077   0.4603
  109  144   1       0.1500   0.0000
  109  146   1       0.3060   0.4676
  109  148   1       0.1500   0.0000
  109  150   1       0.3083   0.5713
  109  152   1       0.1500   0.0000
  109  154   1       0.1500   0.0000
  109  156   1       0.1500   0.0000
  109  158   1       0.3200   0.3867
  109  160   1       0.2825   0.1465
  109  162   1       0.3200   0.3428
  109  164   1       0.2980   0.5357
  109  166   1       0.3125   0.4820
  109  168   1       0.2736   0.1465
  109  170   1       0.3200   0.3428
  109  172   1       0.2800   0.1432
  109  176   1       0.3125   0.4820
  109  178   1       0.2480   0.1465
  109  180   1       0.3125   0.4820
  109  182   1       0.2035   0.1465
  111    0   1       0.1480   0.0000
  111    2   1       0.3180   0.3811
  111    4   1       0.3180   0.3811
  111    6   1       0.3180   0.3811
  111    8   1       0.3180   0.3811
  111   10   1       0.3180   0.3811
  111   12   1       0.3180   0.3811
  111   14   1       0.3180   0.3811
  111   16   1       0.3180   0.3811
  111   18   1       0.3180   0.3811
  111   20   1       0.3180   0.3811
  111   22   1       0.3180   0.3811
  111   24   1       0.3180   0.4298
  111   26   1       0.3180   0.4298
  111   28   1       0.3180   0.4298
  111   30   1       0.3180   0.4298
  111   32   1       0.3180   0.4298
  111   34   1       0.3180   0.4298
  111   36   1       0.3180   0.4298
  111   38   1       0.3180   0.3811
  111   40   1       0.3180   0.3811
  111   42   1       0.3180   0.3811
  111   44   1       0.3006   0.8811
  111   46   1       0.3039   0.3209
  111   48   1       0.2014   0.1628
  111   50   1       0.2014   0.1628
  111   52   1       0.2805   0.1628
  111   54   1       0.2716   0.1628
  111   56   1       0.2627   0.1628
  111   58   1       0.2537   0.1628
  111   60   1       0.2780   0.1591
  111   62   1       0.2735   0.1591
  111   64   1       0.2691   0.1591
  111   66   1       0.1480   0.0000
  111   68   1       0.2014   0.1628
  111   70   1       0.1480   0.0000
  111   72   1       0.2460   0.1628
  111   74   1       0.3574   0.8218
  111   76   1       0.3680   0.4109
  111   78   1       0.3144   0.0684
  111   80   1       0.5934   0.4109
  111   82   1       0.2186   1.2291
  111   84   1       0.3105   0.5357
  111   86   1       0.3105   0.5357
  111   88   1       0.3105   0.5357
  111   90   1       0.3105   0.5357
  111   92   1       0.3105   0.5357
  111   94   1       0.3105   0.5357
  111   96   1       0.3105   0.5357
  111   98   1       0.2960   0.5954
  111  100   1       0.2960   0.5954
  111  102   1       0.3055   0.5068
  111  104   1       0.3013   0.5960
  111  106   1       0.3013   0.5960
  111  108   1       0.2980   0.5357
  111  110   1       0.2960   0.5954
  111  112   1       0.3351   0.5811
  111  114   1       0.3262   0.6497
  111  116   1       0.3262   0.6497
  111  118   1       0.3180   0.3811
  111  120   1       0.1480   0.0000
  111  122   1       0.3848   0.0235
  111  124   1       0.4113   0.0169
  111  132   1       0.2493   0.1758
  111  134   1       0.2460   0.1453
  111  136   1       0.1480   0.0000
  111  138   1       0.3062   0.5242
  111  140   1       0.1480   0.0000
  111  142   1       0.3057   0.5116
  111  144   1       0.1480   0.0000
  111  146   1       0.3040   0.5198
  111  148   1       0.1480   0.0000
  111  150   1       0.3062   0.6349
  111  152   1       0.1480   0.0000
  111  154   1       0.1480   0.0000
  111  156   1       0.1480   0.0000
  111  158   1       0.3180   0.4298
  111  160   1       0.2805   0.1628
  111  162   1       0.3180   0.3811
  111  164   1       0.2960   0.5954
  111  166   1       0.3105   0.5357
  111  168   1       0.2716   0.1628
  111  170   1       0.3180   0.3811
  111  172   1       0.2780   0.1591
  111  176   1       0.3105   0.5357
  111  178   1       0.2460   0.1628
  111  180   1       0.3105   0.5357
  111  182   1       0.2014   0.1628
  113    0   1       0.1871   0.0000
  113    2   1       0.3571   0.3719
  113    4   1       0.3571   0.3719
  113    6   1       0.3571   0.3719
  113    8   1       0.3571   0.3719
  113   10   1       0.3571   0.3719
  113   12   1       0.3571   0.3719
  113   14   1       0.3571   0.3719
  113   16   1       0.3571   0.3719
  113   18   1       0.3571   0.3719
  113   20   1       0.3571   0.3719
  113   22   1       0.3571   0.3719
  113   24   1       0.3571   0.4194
  113   26   1       0.3571   0.4194
  113   28   1       0.3571   0.4194
  113   30   1       0.3571   0.4194
  113   32   1       0.3571   0.4194
  113   34   1       0.3571   0.4194
  113   36   1       0.3571   0.4194
  113   38   1       0.3571   0.3719
  113   40   1       0.3571   0.3719
  113   42   1       0.3571   0.3719
  113   44   1       0.3397   0.8598
  113   46   1       0.3430   0.3132
  113   48   1       0.2405   0.1589
  113   50   1       0.2405   0.1589
  113   52   1       0.3196   0.1589
  113   54   1       0.3107   0.1589
  113   56   1       0.3017   0.1589
  113   58   1       0.2928   0.1589
  113   60   1       0.3171   0.1553
  113   62   1       0.3126   0.1553
  113   64   1       0.3082   0.1553
  113   66   1       0.1871   0.0000
  113   68   1       0.2405   0.1589
  113   70   1       0.1871   0.0000
  113   72   1       0.2851   0.1589
  113   74   1       0.3964   0.8020
  113   76   1       0.4071   0.4010
  113   78   1       0.3535   0.0667
  113   80   1       0.6325   0.4010
  113   82   1       0.2577   1.1994
  113   84   1       0.3496   0.5228
  113   86   1       0.3496   0.5228
  113   88   1       0.3496   0.5228
  113   90   1       0.3496   0.5228
  113   92   1       0.3496   0.5228
  113   94   1       0.3496   0.5228
  113   96   1       0.3496   0.5228
  113   98   1       0.3351   0.5811
  113  100   1       0.3351   0.5811
  113  102   1       0.3446   0.4945
  113  104   1       0.3404   0.5817
  113  106   1       0.3404   0.5817
  113  108   1       0.3371   0.5228
  113  110   1       0.3351   0.5811
  113  112   1       0.3742   0.5671
  113  114   1       0.3653   0.6340
  113  116   1       0.3653   0.6340
  113  118   1       0.3571   0.3719
  113  120   1       0.1871   0.0000
  113  122   1       0.4239   0.0230
  113  124   1       0.4504   0.0165
  113  132   1       0.2884   0.1715
  113  134   1       0.2851   0.1418
  113  136   1       0.1871   0.0000
  113  138   1       0.3453   0.5116
  113  140   1       0.1871   0.0000
  113  142   1       0.3448   0.4992
  113  144   1       0.1871   0.0000
  113  146   1       0.3431   0.5072
  113  148   1       0.1871   0.0000
  113  150   1       0.3453   0.6196
  113  152   1       0.1871   0.0000
  113  154   1       0.1871   0.0000
  113  156   1       0.1871   0.0000
  113  158   1       0.3571   0.4194
  113  160   1       0.3196   0.1589
  113  162   1       0.3571   0.3719
  113  164   1       0.3351   0.5811
  113  166   1       0.3496   0.5228
  113  168   1       0.3107   0.1589
  113  170   1       0.3571   0.3719
  113  172   1       0.3171   0.1553
  113  176   1       0.3496   0.5228
  113  178   1       0.2851   0.1589
  113  180   1       0.3496   0.5228
  113  182   1       0.2405   0.1589
  115    0   1       0.1782   0.0000
  115    2   1       0.3482   0.4158
  115    4   1       0.3482   0.4158
  115    6   1       0.3482   0.4158
  115    8   1       0.3482   0.4158
  115   10   1       0.3482   0.4158
  115   12   1       0.3482   0.4158
  115   14   1       0.3482   0.4158
  115   16   1       0.3482   0.4158
  115   18   1       0.3482   0.4158
  115   20   1       0.3482   0.4158
  115   22   1       0.3482   0.4158
  115   24   1       0.3482   0.4689
  115   26   1       0.3482   0.4689
  115   28   1       0.3482   0.4689
  115   30   1       0.3482   0.4689
  115   32   1       0.3482   0.4689
  115   34   1       0.3482   0.4689
  115   36   1       0.3482   0.4689
  115   38   1       0.3482   0.4158
  115   40   1       0.3482   0.4158
  115   42   1       0.3482   0.4158
  115   44   1       0.3308   0.9613
  115   46   1       0.3341   0.3502
  115   48   1       0.2316   0.1776
  115   50   1       0.2316   0.1776
  115   52   1       0.3107   0.1776
  115   54   1       0.3017   0.1776
  115   56   1       0.2928   0.1776
  115   58   1       0.2839   0.1776
  115   60   1       0.3082   0.1736
  115   62   1       0.3037   0.1736
  115   64   1       0.2993   0.1736
  115   66   1       0.1782   0.0000
  115   68   1       0.2316   0.1776
  115   70   1       0.1782   0.0000
  115   72   1       0.2762   0.1776
  115   74   1       0.3875   0.8967
  115   76   1       0.3982   0.4483
  115   78   1       0.3446   0.0746
  115   80   1       0.6236   0.4483
  115   82   1       0.2488   1.3410
  115   84   1       0.3407   0.5845
  115   86   1       0.3407   0.5845
  115   88   1       0.3407   0.5845
  115   90   1       0.3407   0.5845
  115   92   1       0.3407   0.5845
  115   94   1       0.3407   0.5845
  115   96   1       0.3407   0.5845
  115   98   1       0.3262   0.6497
  115  100   1       0.3262   0.6497
  115  102   1       0.3357   0.5529
  115  104   1       0.3315   0.6503
  115  106   1       0.3315   0.6503
  115  108   1       0.3282   0.5845
  115  110   1       0.3262   0.6497
  115  112   1       0.3653   0.6340
  115  114   1       0.3564   0.7089
  115  116   1       0.3564   0.7089
  115  118   1       0.3482   0.4158
  115  120   1       0.1782   0.0000
  115  122   1       0.4150   0.0257
  115  124   1       0.4415   0.0185
  115  132   1       0.2795   0.1918
  115  134   1       0.2762   0.1585
  115  136   1       0.1782   0.0000
  115  138   1       0.3364   0.5719
  115  140   1       0.1782   0.0000
  115  142   1       0.3359   0.5582
  115  144   1       0.1782   0.0000
  115  146   1       0.3342   0.5671
  115  148   1       0.1782   0.0000
  115  150   1       0.3364   0.6928
  115  152   1       0.1782   0.0000
  115  154   1       0.1782   0.0000
  115  156   1       0.1782   0.0000
  115  158   1       0.3482   0.4689
  115  160   1       0.3107   0.1776
  115  162   1       0.3482   0.4158
  115  164   1       0.3262   0.6497
  115  166   1       0.3407   0.5845
  115  168   1       0.3017   0.1776
  115  170   1       0.3482   0.4158
  115  172   1       0.3082   0.1736
  115  176   1       0.3407   0.5845
  115  178   1       0.2762   0.1776
  115  180   1       0.3407   0.5845
  115  182   1       0.2316   0.1776
  117    0   1       0.1782   0.0000
  117    2   1       0.3482   0.4158
  117    4   1       0.3482   0.4158
  117    6   1       0.3482   0.4158
  117    8   1       0.3482   0.4158
  117   10   1       0.3482   0.4158
  117   12   1       0.3482   0.4158
  117   14   1       0.3482   0.4158
  117   16   1       0.3482   0.4158
  117   18   1       0.3482   0.4158
  117   20   1       0.3482   0.4158
  117   22   1       0.3482   0.4158
  117   24   1       0.3482   0.4689
  117   26   1       0.3482   0.4689
  117   28   1       0.3482   0.4689
  117   30   1       0.3482   0.4689
  117   32   1       0.3482   0.4689
  117   34   1       0.3482   0.4689
  117   36   1       0.3482   0.4689
  117   38   1       0.3482   0.4158
  117   40   1       0.3482   0.4158
  117   42   1       0.3482   0.4158
  117   44   1       0.3308   0.9613
  117   46   1       0.3341   0.3502
  117   48   1       0.2316   0.1776
  117   50   1       0.2316   0.1776
  117   52   1       0.3107   0.1776
  117   54   1       0.3017   0.1776
  117   56   1       0.2928   0.1776
  117   58   1       0.2839   0.1776
  117   60   1       0.3082   0.1736
  117   62   1       0.3037   0.1736
  117   64   1       0.2993   0.1736
  117   66   1       0.1782   0.0000
  117   68   1       0.2316   0.1776
  117   70   1       0.1782   0.0000
  117   72   1       0.2762   0.1776
  117   74   1       0.3875   0.8967
  117   76   1       0.3982   0.4483
  117   78   1       0.3446   0.0746
  117   80   1       0.6236   0.4483
  117   82   1       0.2488   1.3410
  117   84   1       0.3407   0.5845
  117   86   1       0.3407   0.5845
  117   88   1       0.3407   0.5845
  117   90   1       0.3407   0.5845
  117   92   1       0.3407   0.5845
  117   94   1       0.3407   0.5845
  117   96   1       0.3407   0.5845
  117   98   1       0.3262   0.6497
  117  100   1       0.3262   0.6497
  117  102   1       0.3357   0.5529
  117  104   1       0.3315   0.6503
  117  106   1       0.3315   0.6503
  117  108   1       0.3282   0.5845
  117  110   1       0.3262   0.6497
  117  112   1       0.3653   0.6340
  117  114   1       0.3564   0.7089
  117  116   1       0.3564   0.7089
  117  118   1       0.3482   0.4158
  117  120   1       0.1782   0.0000
  117  122   1       0.4150   0.0257
  117  124   1       0.4415   0.0185
  117  132   1       0.2795   0.1918
  117  134   1       0.2762   0.1585
  117  136   1       0.1782   0.0000
  117  138   1       0.3364   0.5719
  117  140   1       0.1782   0.0000
  117  142   1       0.3359   0.5582
  117  144   1       0.1782   0.0000
  117  146   1       0.3342   0.5671
  117  148   1       0.1782   0.0000
  117  150   1       0.3364   0.6928
  117  152   1       0.1782   0.0000
  117  154   1       0.1782   0.0000
  117  156   1       0.1782   0.0000
  117  158   1       0.3482   0.4689
  117  160   1       0.3107   0.1776
  117  162   1       0.3482   0.4158
  117  164   1       0.3262   0.6497
  117  166   1       0.3407   0.5845
  117  168   1       0.3017   0.1776
  117  170   1       0.3482   0.4158
  117  172   1       0.3082   0.1736
  117  176   1       0.3407   0.5845
  117  178   1       0.2762   0.1776
  117  180   1       0.3407   0.5845
  117  182   1       0.2316   0.1776
  119    0   1       0.1700   0.0000
  119    2   1       0.3400   0.2439
  119    4   1       0.3400   0.2439
  119    6   1       0.3400   0.2439
  119    8   1       0.3400   0.2439
  119   10   1       0.3400   0.2439
  119   12   1       0.3400   0.2439
  119   14   1       0.3400   0.2439
  119   16   1       0.3400   0.2439
  119   18   1       0.3400   0.2439
  119   20   1       0.3400   0.2439
  119   22   1       0.3400   0.2439
  119   24   1       0.3400   0.2750
  119   26   1       0.3400   0.2750
  119   28   1       0.3400   0.2750
  119   30   1       0.3400   0.2750
  119   32   1       0.3400   0.2750
  119   34   1       0.3400   0.2750
  119   36   1       0.3400   0.2750
  119   38   1       0.3400   0.2439
  119   40   1       0.3400   0.2439
  119   42   1       0.3400   0.2439
  119   44   1       0.3226   0.5638
  119   46   1       0.3259   0.2054
  119   48   1       0.2234   0.1042
  119   50   1       0.2234   0.1042
  119   52   1       0.3025   0.1042
  119   54   1       0.2936   0.1042
  119   56   1       0.2846   0.1042
  119   58   1       0.2757   0.1042
  119   60   1       0.3000   0.1018
  119   62   1       0.2955   0.1018
  119   64   1       0.2911   0.1018
  119   66   1       0.1700   0.0000
  119   68   1       0.2234   0.1042
  119   70   1       0.1700   0.0000
  119   72   1       0.2680   0.1042
  119   74   1       0.3793   0.5259
  119   76   1       0.3900   0.2630
  119   78   1       0.3364   0.0438
  119   80   1       0.6154   0.2630
  119   82   1       0.2406   0.7865
  119   84   1       0.3325   0.3428
  119   86   1       0.3325   0.3428
  119   88   1       0.3325   0.3428
  119   90   1       0.3325   0.3428
  119   92   1       0.3325   0.3428
  119   94   1       0.3325   0.3428
  119   96   1       0.3325   0.3428
  119   98   1       0.3180   0.3811
  119  100   1       0.3180   0.3811
  119  102   1       0.3275   0.3243
  119  104   1       0.3233   0.3814
  119  106   1       0.3233   0.3814
  119  108   1       0.3200   0.3428
  119  110   1       0.3180   0.3811
  119  112   1       0.3571   0.3719
  119  114   1       0.3482   0.4158
  119  116   1       0.3482   0.4158
  119  118   1       0.3400   0.2439
  119  120   1       0.1700   0.0000
  119  122   1       0.4068   0.0151
  119  124   1       0.4333   0.0108
  119  132   1       0.2713   0.1125
  119  134   1       0.2680   0.0930
  119  136   1       0.1700   0.0000
  119  138   1       0.3282   0.3355
  119  140   1       0.1700   0.0000
  119  142   1       0.3277   0.3274
  119  144   1       0.1700   0.0000
  119  146   1       0.3260   0.3326
  119  148   1       0.1700   0.0000
  119  150   1       0.3282   0.4063
  119  152   1       0.1700   0.0000
  119  154   1       0.1700   0.0000
  119  156   1       0.1700   0.0000
  119  158   1       0.3400   0.2750
  119  160   1       0.3025   0.1042
  119  162   1       0.3400   0.2439
  119  164   1       0.3180   0.3811
  119  166   1       0.3325   0.3428
  119  168   1       0.2936   0.1042
  119  170   1       0.3400   0.2439
  119  172   1       0.3000   0.1018
  119  176   1       0.3325   0.3428
  119  178   1       0.2680   0.1042
  119  180   1       0.3325   0.3428
  119  182   1       0.2234   0.1042
  121    0   1       0.0000   0.0000
  121    2   1       0.1700   0.0000
  121    4   1       0.1700   0.0000
  121    6   1       0.1700   0.0000
  121    8   1       0.1700   0.0000
  121   10   1       0.1700   0.0000
  121   12   1       0.1700   0.0000
  121   14   1       0.1700   0.0000
  121   16   1       0.1700   0.0000
  121   18   1       0.1700   0.0000
  121   20   1       0.1700   0.0000
  121   22   1       0.1700   0.0000
  121   24   1       0.1700   0.0000
  121   26   1       0.1700   0.0000
  121   28   1       0.1700   0.0000
  121   30   1       0.1700   0.0000
  121   32   1       0.1700   0.0000
  121   34   1       0.1700   0.0000
  121   36   1       0.1700   0.0000
  121   38   1       0.1700   0.0000
  121   40   1       0.1700   0.0000
  121   42   1       0.1700   0.0000
  121   44   1       0.1526   0.0000
  121   46   1       0.1559   0.0000
  121   48   1       0.0535   0.0000
  121   50   1       0.0535   0.0000
  121   52   1       0.1325   0.0000
  121   54   1       0.1236   0.0000
  121   56   1       0.1147   0.0000
  121   58   1       0.1057   0.0000
  121   60   1       0.1300   0.0000
  121   62   1       0.1255   0.0000
  121   64   1       0.1211   0.0000
  121   66   1       0.0000   0.0000
  121   68   1       0.0535   0.0000
  121   70   1       0.0000   0.0000
  121   72   1       0.0980   0.0000
  121   74   1       0.2094   0.0000
  121   76   1       0.2201   0.0000
  121   78   1       0.1664   0.0000
  121   80   1       0.4454   0.0000
  121   82   1       0.0706   0.0000
  121   84   1       0.1625   0.0000
  121   86   1       0.1625   0.0000
  121   88   1       0.1625   0.0000
  121   90   1       0.1625   0.0000
  121   92   1       0.1625   0.0000
  121   94   1       0.1625   0.0000
  121   96   1       0.1625   0.0000
  121   98   1       0.1480   0.0000
  121  100   1       0.1480   0.0000
  121  102   1       0.1575   0.0000
  121  104   1       0.1533   0.0000
  121  106   1       0.1533   0.0000
  121  108   1       0.1500   0.0000
  121  110   1       0.1480   0.0000
  121  112   1       0.1871   0.0000
  121  114   1       0.1782   0.0000
  121  116   1       0.1782   0.0000
  121  118   1       0.1700   0.0000
  121  120   1       0.0000   0.0000
  121  122   1       0.2368   0.0000
  121  124   1       0.2633   0.0000
  121  132   1       0.1013   0.0000
  121  134   1       0.0980   0.0000
  121  136   1       0.0000   0.0000
  121  138   1       0.1582   0.0000
  121  140   1       0.0000   0.0000
  121  142   1       0.1577   0.0000
  121  144   1       0.0000   0.0000
  121  146   1       0.1560   0.0000
  121  148   1       0.0000   0.0000
  121  150   1       0.1583   0.0000
  121  152   1       0.0000   0.0000
  121  154   1       0.0000   0.0000
  121  156   1       0.0000   0.0000
  121  158   1       0.1700   0.0000
  121  160   1       0.1325   0.0000
  121  162   1       0.1700   0.0000
  121  164   1       0.1480   0.0000
  121  166   1       0.1625   0.0000
  121  168   1       0.1236   0.0000
  121  170   1       0.1700   0.0000
  121  172   1       0.1300   0.0000
  121  176   1       0.1625   0.0000
  121  178   1       0.0980   0.0000
  121  180   1       0.1625   0.0000
  121  182   1       0.0535   0.0000
  123    0   1       0.2368   0.0000
  123    2   1       0.4068   0.0151
  123    4   1       0.4068   0.0151
  123    6   1       0.4068   0.0151
  123    8   1       0.4068   0.0151
  123   10   1       0.4068   0.0151
  123   12   1       0.4068   0.0151
  123   14   1       0.4068   0.0151
  123   16   1       0.4068   0.0151
  123   18   1       0.4068   0.0151
  123   20   1       0.4068   0.0151
  123   22   1       0.4068   0.0151
  123   24   1       0.4068   0.0170
  123   26   1       0.4068   0.0170
  123   28   1       0.4068   0.0170
  123   30   1       0.4068   0.0170
  123   32   1       0.4068   0.0170
  123   34   1       0.4068   0.0170
  123   36   1       0.4068   0.0170
  123   38   1       0.4068   0.0151
  123   40   1       0.4068   0.0151
  123   42   1       0.4068   0.0151
  123   44   1       0.3894   0.0348
  123   46   1       0.3927   0.0127
  123   48   1       0.2903   0.0064
  123   50   1       0.2903   0.0064
  123   52   1       0.3693   0.0064
  123   54   1       0.3604   0.0064
  123   56   1       0.3515   0.0064
  123   58   1       0.3426   0.0064
  123   60   1       0.3668   0.0063
  123   62   1       0.3623   0.0063
  123   64   1       0.3579   0.0063
  123   66   1       0.2368   0.0000
  123   68   1       0.2903   0.0064
  123   70   1       0.2368   0.0000
  123   72   1       0.3348   0.0064
  123   74   1       0.4462   0.0325
  123   76   1       0.4569   0.0162
  123   78   1       0.4032   0.0027
  123   80   1       0.6823   0.0162
  123   82   1       0.3074   0.0486
  123   84   1       0.3993   0.0212
  123   86   1       0.3993   0.0212
  123   88   1       0.3993   0.0212
  123   90   1       0.3993   0.0212
  123   92   1       0.3993   0.0212
  123   94   1       0.3993   0.0212
  123   96   1       0.3993   0.0212
  123   98   1       0.3848   0.0235
  123  100   1       0.3848   0.0235
  123  102   1       0.3943   0.0200
  123  104   1       0.3901   0.0236
  123  106   1       0.3901   0.0236
  123  108   1       0.3868   0.0212
  123  110   1       0.3848   0.0235
  123  112   1       0.4239   0.0230
  123  114   1       0.4150   0.0257
  123  116   1       0.4150   0.0257
  123  118   1       0.4068   0.0151
  123  120   1       0.2368   0.0000
  123  122   1       0.4736   0.0009
  123  124   1       0.5002   0.0007
  123  132   1       0.3381   0.0069
  123  134   1       0.3348   0.0057
  123  136   1       0.2368   0.0000
  123  138   1       0.3950   0.0207
  123  140   1       0.2368   0.0000
  123  142   1       0.3945   0.0202
  123  144   1       0.2368   0.0000
  123  146   1       0.3928   0.0205
  123  148   1       0.2368   0.0000
  123  150   1       0.3951   0.0251
  123  152   1       0.2368   0.0000
  123  154   1       0.2368   0.0000
  123  156   1       0.2368   0.0000
  123  158   1       0.4068   0.0170
  123  160   1       0.3693   0.0064
  123  162   1       0.4068   0.0151
  123  164   1       0.3848   0.0235
  123  166   1       0.3993   0.0212
  123  168   1       0.3604   0.0064
  123  170   1       0.4068   0.0151
  123  172   1       0.3668   0.0063
  123  176   1       0.3993   0.0212
  123  178   1       0.3348   0.0064
  123  180   1       0.3993   0.0212
  123  182   1       0.2903   0.0064
  125    0   1       0.2633   0.0000
  125    2   1       0.4333   0.0108
  125    4   1       0.4333   0.0108
  125    6   1       0.4333   0.0108
  125    8   1       0.4333   0.0108
  125   10   1       0.4333   0.0108
  125   12   1       0.4333   0.0108
  125   14   1       0.4333   0.0108
  125   16   1       0.4333   0.0108
  125   18   1       0.4333   0.0108
  125   20   1       0.4333   0.0108
  125   22   1       0.4333   0.0108
  125   24   1       0.4333   0.0122
  125   26   1       0.4333   0.0122
  125   28   1       0.4333   0.0122
  125   30   1       0.4333   0.0122
  125   32   1       0.4333   0.0122
  125   34   1       0.4333   0.0122
  125   36   1       0.4333   0.0122
  125   38   1       0.4333   0.0108
  125   40   1       0.4333   0.0108
  125   42   1       0.4333   0.0108
  125   44   1       0.4160   0.0251
  125   46   1       0.4193   0.0091
  125   48   1       0.3168   0.0046
  125   50   1       0.3168   0.0046
  125   52   1       0.3958   0.0046
  125   54   1       0.3869   0.0046
  125   56   1       0.3780   0.0046
  125   58   1       0.3691   0.0046
  125   60   1       0.3933   0.0045
  125   62   1       0.3889   0.0045
  125   64   1       0.3844   0.0045
  125   66   1       0.2633   0.0000
  125   68   1       0.3168   0.0046
  125   70   1       0.2633   0.0000
  125   72   1       0.3613   0.0046
  125   74   1       0.4727   0.0234
  125   76   1       0.4834   0.0117
  125   78   1       0.4298   0.0019
  125   80   1       0.7088   0.0117
  125   82   1       0.3340   0.0350
  125   84   1       0.4258   0.0152
  125   86   1       0.4258   0.0152
  125   88   1       0.4258   0.0152
  125   90   1       0.4258   0.0152
  125   92   1       0.4258   0.0152
  125   94   1       0.4258   0.0152
  125   96   1       0.4258   0.0152
  125   98   1       0.4113   0.0169
  125  100   1       0.4113   0.0169
  125  102   1       0.4209   0.0144
  125  104   1       0.4167   0.0170
  125  106   1       0.4167   0.0170
  125  108   1       0.4133   0.0152
  125  110   1       0.4113   0.0169
  125  112   1       0.4504   0.0165
  125  114   1       0.4415   0.0185
  125  116   1       0.4415   0.0185
  125  118   1       0.4333   0.0108
  125  120   1       0.2633   0.0000
  125  122   1       0.5002   0.0007
  125  124   1       0.5267   0.0005
  125  132   1       0.3646   0.0050
  125  134   1       0.3613   0.0041
  125  136   1       0.2633   0.0000
  125  138   1       0.4216   0.0149
  125  140   1       0.2633   0.0000
  125  142   1       0.4210   0.0146
  125  144   1       0.2633   0.0000
  125  146   1       0.4193   0.0148
  125  148   1       0.2633   0.0000
  125  150   1       0.4216   0.0181
  125  152   1       0.2633   0.0000
  125  154   1       0.2633   0.0000
  125  156   1       0.2633   0.0000
  125  158   1       0.4333   0.0122
  125  160   1       0.3958   0.0046
  125  162   1       0.4333   0.0108
  125  164   1       0.4113   0.0169
  125  166   1       0.4258   0.0152
  125  168   1       0.3869   0.0046
  125  170   1       0.4333   0.0108
  125  172   1       0.3933   0.0045
  125  176   1       0.4258   0.0152
  125  178   1       0.3613   0.0046
  125  180   1       0.4258   0.0152
  125  182   1       0.3168   0.0046
  126    0   1       0.3025   0.0000
  126    2   1       0.4724   0.0093
  126    4   1       0.4724   0.0093
  126    6   1       0.4724   0.0093
  126    8   1       0.4724   0.0093
  126   10   1       0.4724   0.0093
  126   12   1       0.4724   0.0093
  126   14   1       0.4724   0.0093
  126   16   1       0.4724   0.0093
  126   18   1       0.4724   0.0093
  126   20   1       0.4724   0.0093
  126   22   1       0.4724   0.0093
  126   24   1       0.4724   0.0105
  126   26   1       0.4724   0.0105
  126   28   1       0.4724   0.0105
  126   30   1       0.4724   0.0105
  126   32   1       0.4724   0.0105
  126   34   1       0.4724   0.0105
  126   36   1       0.4724   0.0105
  126   38   1       0.4724   0.0093
  126   40   1       0.4724   0.0093
  126   42   1       0.4724   0.0093
  126   44   1       0.4551   0.0215
  126   46   1       0.4584   0.0078
  126   48   1       0.3559   0.0040
  126   50   1       0.3559   0.0040
  126   52   1       0.4349   0.0040
  126   54   1       0.4260   0.0040
  126   56   1       0.4171   0.0040
  126   58   1       0.4082   0.0040
  126   60   1       0.4324   0.0039
  126   62   1       0.4280   0.0039
  126   64   1       0.4235   0.0039
  126   66   1       0.3025   0.0000
  126   68   1       0.3559   0.0040
  126   70   1       0.3025   0.0000
  126   72   1       0.4005   0.0040
  126   74   1       0.5118   0.0200
  126   76   1       0.5225   0.0100
  126   78   1       0.4689   0.0017
  126   80   1       0.7479   0.0100
  126   82   1       0.3731   0.0300
  126   84   1       0.4650   0.0131
  126   86   1       0.4650   0.0131
  126   88   1       0.4650   0.0131
  126   90   1       0.4650   0.0131
  126   92   1       0.4650   0.0131
  126   94   1       0.4650   0.0131
  126   96   1       0.4650   0.0131
  126   98   1       0.4505   0.0145
  126  100   1       0.4505   0.0145
  126  102   1       0.4600   0.0124
  126  104   1       0.4558   0.0145
  126  106   1       0.4558   0.0145
  126  108   1       0.4525   0.0131
  126  110   1       0.4505   0.0145
  126  112   1       0.4895   0.0142
  126  114   1       0.4806   0.0158
  126  116   1       0.4806   0.0158
  126  118   1       0.4724   0.0093
  126  120   1       0.3025   0.0000
  126  122   1       0.5393   0.0006
  126  124   1       0.5658   0.0004
  126  132   1       0.4038   0.0043
  126  134   1       0.4005   0.0035
  126  136   1       0.3025   0.0000
  126  138   1       0.4607   0.0128
  126  140   1       0.3025   0.0000
  126  142   1       0.4601   0.0125
  126  144   1       0.3025   0.0000
  126  146   1       0.4585   0.0127
  126  148   1       0.3025   0.0000
  126  150   1       0.4607   0.0155
  126  152   1       0.3025   0.0000
  126  154   1       0.3025   0.0000
  126  156   1       0.3025   0.0000
  126  158   1       0.4724   0.0105
  126  160   1       0.4349   0.0040
  126  162   1       0.4724   0.0093
  126  164   1       0.4505   0.0145
  126  166   1       0.4650   0.0131
  126  168   1       0.4260   0.0040
  126  170   1       0.4724   0.0093
  126  172   1       0.4324   0.0039
  126  176   1       0.4650   0.0131
  126  178   1       0.4005   0.0040
  126  180   1       0.4650   0.0131
  126  182   1       0.3559   0.0040
  127    0   1       0.3025   0.0000
  127    2   1       0.4724   0.0075
  127    4   1       0.4724   0.0075
  127    6   1       0.4724   0.0075
  127    8   1       0.4724   0.0075
  127   10   1       0.4724   0.0075
  127   12   1       0.4724   0.0075
  127   14   1       0.4724   0.0075
  127   16   1       0.4724   0.0075
  127   18   1       0.4724   0.0075
  127   20   1       0.4724   0.0075
  127   22   1       0.4724   0.0075
  127   24   1       0.4724   0.0084
  127   26   1       0.4724   0.0084
  127   28   1       0.4724   0.0084
  127   30   1       0.4724   0.0084
  127   32   1       0.4724   0.0084
  127   34   1       0.4724   0.0084
  127   36   1       0.4724   0.0084
  127   38   1       0.4724   0.0075
  127   40   1       0.4724   0.0075
  127   42   1       0.4724   0.0075
  127   44   1       0.4551   0.0173
  127   46   1       0.4584   0.0063
  127   48   1       0.3559   0.0032
  127   50   1       0.3559   0.0032
  127   52   1       0.4349   0.0032
  127   54   1       0.4260   0.0032
  127   56   1       0.4171   0.0032
  127   58   1       0.4082   0.0032
  127   60   1       0.4324   0.0031
  127   62   1       0.4280   0.0031
  127   64   1       0.4235   0.0031
  127   66   1       0.3025   0.0000
  127   68   1       0.3559   0.0032
  127   70   1       0.3025   0.0000
  127   72   1       0.4005   0.0032
  127   74   1       0.5118   0.0161
  127   76   1       0.5225   0.0080
  127   78   1       0.4689   0.0013
  127   80   1       0.7479   0.0080
  127   82   1       0.3731   0.0241
  127   84   1       0.4650   0.0105
  127   86   1       0.4650   0.0105
  127   88   1       0.4650   0.0105
  127   90   1       0.4650   0.0105
  127   92   1       0.4650   0.0105
  127   94   1       0.4650   0.0105
  127   96   1       0.4650   0.0105
  127   98   1       0.4505   0.0117
  127  100   1       0.4505   0.0117
  127  102   1       0.4600   0.0099
  127  104   1       0.4558   0.0117
  127  106   1       0.4558   0.0117
  127  108   1       0.4525   0.0105
  127  110   1       0.4505   0.0117
  127  112   1       0.4895   0.0114
  127  114   1       0.4806   0.0127
  127  116   1       0.4806   0.0127
  127  118   1       0.4724   0.0075
  127  120   1       0.3025   0.0000
  127  122   1       0.5393   0.0005
  127  124   1       0.5658   0.0003
  127  132   1       0.4038   0.0034
  127  134   1       0.4005   0.0028
  127  136   1       0.3025   0.0000
  127  138   1       0.4607   0.0103
  127  140   1       0.3025   0.0000
  127  142   1       0.4601   0.0100
  127  144   1       0.3025   0.0000
  127  146   1       0.4585   0.0102
  127  148   1       0.3025   0.0000
  127  150   1       0.4607   0.0124
  127  152   1       0.3025   0.0000
  127  154   1       0.3025   0.0000
  127  156   1       0.3025   0.0000
  127  158   1       0.4724   0.0084
  127  160   1       0.4349   0.0032
  127  162   1       0.4724   0.0075
  127  164   1       0.4505   0.0117
  127  166   1       0.4650   0.0105
  127  168   1       0.4260   0.0032
  127  170   1       0.4724   0.0075
  127  172   1       0.4324   0.0031
  127  176   1       0.4650   0.0105
  127  178   1       0.4005   0.0032
  127  180   1       0.4650   0.0105
  127  182   1       0.3559   0.0032
  128    0   1       0.1583   0.0000
  128    2   1       0.3283   0.4082
  128    4   1       0.3283   0.4082
  128    6   1       0.3283   0.4082
  128    8   1       0.3283   0.4082
  128   10   1       0.3283   0.4082
  128   12   1       0.3283   0.4082
  128   14   1       0.3283   0.4082
  128   16   1       0.3283   0.4082
  128   18   1       0.3283   0.4082
  128   20   1       0.3283   0.4082
  128   22   1       0.3283   0.4082
  128   24   1       0.3283   0.4603
  128   26   1       0.3283   0.4603
  128   28   1       0.3283   0.4603
  128   30   1       0.3283   0.4603
  128   32   1       0.3283   0.4603
  128   34   1       0.3283   0.4603
  128   36   1       0.3283   0.4603
  128   38   1       0.3283   0.4082
  128   40   1       0.3283   0.4082
  128   42   1       0.3283   0.4082
  128   44   1       0.3109   0.9437
  128   46   1       0.3142   0.3437
  128   48   1       0.2117   0.1744
  128   50   1       0.2117   0.1744
  128   52   1       0.2908   0.1744
  128   54   1       0.2818   0.1744
  128   56   1       0.2729   0.1744
  128   58   1       0.2640   0.1744
  128   60   1       0.2883   0.1705
  128   62   1       0.2838   0.1705
  128   64   1       0.2794   0.1705
  128   66   1       0.1583   0.0000
  128   68   1       0.2117   0.1744
  128   70   1       0.1583   0.0000
  128   72   1       0.2563   0.1744
  128   74   1       0.3676   0.8802
  128   76   1       0.3783   0.4401
  128   78   1       0.3247   0.0733
  128   80   1       0.6037   0.4401
  128   82   1       0.2289   1.3165
  128   84   1       0.3208   0.5738
  128   86   1       0.3208   0.5738
  128   88   1       0.3208   0.5738
  128   90   1       0.3208   0.5738
  128   92   1       0.3208   0.5738
  128   94   1       0.3208   0.5738
  128   96   1       0.3208   0.5738
  128   98   1       0.3063   0.6378
  128  100   1       0.3063   0.6378
  128  102   1       0.3158   0.5428
  128  104   1       0.3116   0.6384
  128  106   1       0.3116   0.6384
  128  108   1       0.3083   0.5738
  128  110   1       0.3063   0.6378
  128  112   1       0.3454   0.6224
  128  114   1       0.3365   0.6959
  128  116   1       0.3365   0.6959
  128  118   1       0.3283   0.4082
  128  120   1       0.1583   0.0000
  128  122   1       0.3951   0.0252
  128  124   1       0.4216   0.0181
  128  132   1       0.2596   0.1883
  128  134   1       0.2563   0.1556
  128  136   1       0.1583   0.0000
  128  138   1       0.3165   0.5615
  128  140   1       0.1583   0.0000
  128  142   1       0.3160   0.5479
  128  144   1       0.1583   0.0000
  128  146   1       0.3143   0.5567
  128  148   1       0.1583   0.0000
  128  150   1       0.3165   0.6801
  128  152   1       0.1583   0.0000
  128  154   1       0.1583   0.0000
  128  156   1       0.1583   0.0000
  128  158   1       0.3283   0.4603
  128  160   1       0.2908   0.1744
  128  162   1       0.3283   0.4082
  128  164   1       0.3063   0.6378
  128  166   1       0.3208   0.5738
  128  168   1       0.2818   0.1744
  128  170   1       0.3283   0.4082
  128  172   1       0.2883   0.1705
  128  176   1       0.3208   0.5738
  128  178   1       0.2563   0.1744
  128  180   1       0.3208   0.5738
  128  182   1       0.2117   0.1744
  129    0   1       0.1583   0.0000
  129    2   1       0.3283   0.3279
  129    4   1       0.3283   0.3279
  129    6   1       0.3283   0.3279
  129    8   1       0.3283   0.3279
  129   10   1       0.3283   0.3279
  129   12   1       0.3283   0.3279
  129   14   1       0.3283   0.3279
  129   16   1       0.3283   0.3279
  129   18   1       0.3283   0.3279
  129   20   1       0.3283   0.3279
  129   22   1       0.3283   0.3279
  129   24   1       0.3283   0.3698
  129   26   1       0.3283   0.3698
  129   28   1       0.3283   0.3698
  129   30   1       0.3283   0.3698
  129   32   1       0.3283   0.3698
  129   34   1       0.3283   0.3698
  129   36   1       0.3283   0.3698
  129   38   1       0.3283   0.3279
  129   40   1       0.3283   0.3279
  129   42   1       0.3283   0.3279
  129   44   1       0.3109   0.7582
  129   46   1       0.3142   0.2762
  129   48   1       0.2117   0.1401
  129   50   1       0.2117   0.1401
  129   52   1       0.2908   0.1401
  129   54   1       0.2818   0.1401
  129   56   1       0.2729   0.1401
  129   58   1       0.2640   0.1401
  129   60   1       0.2883   0.1369
  129   62   1       0.2838   0.1369
  129   64   1       0.2794   0.1369
  129   66   1       0.1583   0.0000
  129   68   1       0.2117   0.1401
  129   70   1       0.1583   0.0000
  129   72   1       0.2563   0.1401
  129   74   1       0.3676   0.7072
  129   76   1       0.3783   0.3536
  129   78   1       0.3247   0.0588
  129   80   1       0.6037   0.3536
  129   82   1       0.2289   1.0576
  129   84   1       0.3208   0.4610
  129   86   1       0.3208   0.4610
  129   88   1       0.3208   0.4610
  129   90   1       0.3208   0.4610
  129   92   1       0.3208   0.4610
  129   94   1       0.3208   0.4610
  129   96   1       0.3208   0.4610
  129   98   1       0.3063   0.5124
  129  100   1       0.3063   0.5124
  129  102   1       0.3158   0.4361
  129  104   1       0.3116   0.5129
  129  106   1       0.3116   0.5129
  129  108   1       0.3083   0.4610
  129  110   1       0.3063   0.5124
  129  112   1       0.3454   0.5000
  129  114   1       0.3365   0.5591
  129  116   1       0.3365   0.5591
  129  118   1       0.3283   0.3279
  129  120   1       0.1583   0.0000
  129  122   1       0.3951   0.0203
  129  124   1       0.4216   0.0146
  129  132   1       0.2596   0.1513
  129  134   1       0.2563   0.1250
  129  136   1       0.1583   0.0000
  129  138   1       0.3165   0.4511
  129  140   1       0.1583   0.0000
  129  142   1       0.3160   0.4402
  129  144   1       0.1583   0.0000
  129  146   1       0.3143   0.4473
  129  148   1       0.1583   0.0000
  129  150   1       0.3165   0.5464
  129  152   1       0.1583   0.0000
  129  154   1       0.1583   0.0000
  129  156   1       0.1583   0.0000
  129  158   1       0.3283   0.3698
  129  160   1       0.2908   0.1401
  129  162   1       0.3283   0.3279
  129  164   1       0.3063   0.5124
  129  166   1       0.3208   0.4610
  129  168   1       0.2818   0.1401
  129  170   1       0.3283   0.3279
  129  172   1       0.2883   0.1369
  129  176   1       0.3208   0.4610
  129  178   1       0.2563   0.1401
  129  180   1       0.3208   0.4610
  129  182   1       0.2117   0.1401
  130    0   1       0.0000   0.0000
  130    2   1       0.1700   0.0000
  130    4   1       0.1700   0.0000
  130    6   1       0.1700   0.0000
  130    8   1       0.1700   0.0000
  130   10   1       0.1700   0.0000
  130   12   1       0.1700   0.0000
  130   14   1       0.1700   0.0000
  130   16   1       0.1700   0.0000
  130   18   1       0.1700   0.0000
  130   20   1       0.1700   0.0000
  130   22   1       0.1700   0.0000
  130   24   1       0.1700   0.0000
  130   26   1       0.1700   0.0000
  130   28   1       0.1700   0.0000
  130   30   1       0.1700   0.0000
  130   32   1       0.1700   0.0000
  130   34   1       0.1700   0.0000
  130   36   1       0.1700   0.0000
  130   38   1       0.1700   0.0000
  130   40   1       0.1700   0.0000
  130   42   1       0.1700   0.0000
  130   44   1       0.1526   0.0000
  130   46   1       0.1559   0.0000
  130   48   1       0.0535   0.0000
  130   50   1       0.0535   0.0000
  130   52   1       0.1325   0.0000
  130   54   1       0.1236   0.0000
  130   56   1       0.1147   0.0000
  130   58   1       0.1057   0.0000
  130   60   1       0.1300   0.0000
  130   62   1       0.1255   0.0000
  130   64   1       0.1211   0.0000
  130   66   1       0.0000   0.0000
  130   68   1       0.0535   0.0000
  130   70   1       0.0000   0.0000
  130   72   1       0.0980   0.0000
  130   74   1       0.2094   0.0000
  130   76   1       0.2201   0.0000
  130   78   1       0.1664   0.0000
  130   80   1       0.4454   0.0000
  130   82   1       0.0706   0.0000
  130   84   1       0.1625   0.0000
  130   86   1       0.1625   0.0000
  130   88   1       0.1625   0.0000
  130   90   1       0.1625   0.0000
  130   92   1       0.1625   0.0000
  130   94   1       0.1625   0.0000
  130   96   1       0.1625   0.0000
  130   98   1       0.1480   0.0000
  130  100   1       0.1480   0.0000
  130  102   1       0.1575   0.0000
  130  104   1       0.1533   0.0000
  130  106   1       0.1533   0.0000
  130  108   1       0.1500   0.0000
  130  110   1       0.1480   0.0000
  130  112   1       0.1871   0.0000
  130  114   1       0.1782   0.0000
  130  116   1       0.1782   0.0000
  130  118   1       0.1700   0.0000
  130  120   1       0.0000   0.0000
  130  122   1       0.2368   0.0000
  130  124   1       0.2633   0.0000
  130  132   1       0.1013   0.0000
  130  134   1       0.0980   0.0000
  130  136   1       0.0000   0.0000
  130  138   1       0.1582   0.0000
  130  140   1       0.0000   0.0000
  130  142   1       0.1577   0.0000
  130  144   1       0.0000   0.0000
  130  146   1       0.1560   0.0000
  130  148   1       0.0000   0.0000
  130  150   1       0.1583   0.0000
  130  152   1       0.0000   0.0000
  130  154   1       0.0000   0.0000
  130  156   1       0.0000   0.0000
  130  158   1       0.1700   0.0000
  130  160   1       0.1325   0.0000
  130  162   1       0.1700   0.0000
  130  164   1       0.1480   0.0000
  130  166   1       0.1625   0.0000
  130  168   1       0.1236   0.0000
  130  170   1       0.1700   0.0000
  130  172   1       0.1300   0.0000
  130  176   1       0.1625   0.0000
  130  178   1       0.0980   0.0000
  130  180   1       0.1625   0.0000
  130  182   1       0.0535   0.0000
  131    0   1       0.0000   0.0000
  131    2   1       0.1700   0.0000
  131    4   1       0.1700   0.0000
  131    6   1       0.1700   0.0000
  131    8   1       0.1700   0.0000
  131   10   1       0.1700   0.0000
  131   12   1       0.1700   0.0000
  131   14   1       0.1700   0.0000
  131   16   1       0.1700   0.0000
  131   18   1       0.1700   0.0000
  131   20   1       0.1700   0.0000
  131   22   1       0.1700   0.0000
  131   24   1       0.1700   0.0000
  131   26   1       0.1700   0.0000
  131   28   1       0.1700   0.0000
  131   30   1       0.1700   0.0000
  131   32   1       0.1700   0.0000
  131   34   1       0.1700   0.0000
  131   36   1       0.1700   0.0000
  131   38   1       0.1700   0.0000
  131   40   1       0.1700   0.0000
  131   42   1       0.1700   0.0000
  131   44   1       0.1526   0.0000
  131   46   1       0.1559   0.0000
  131   48   1       0.0535   0.0000
  131   50   1       0.0535   0.0000
  131   52   1       0.1325   0.0000
  131   54   1       0.1236   0.0000
  131   56   1       0.1147   0.0000
  131   58   1       0.1057   0.0000
  131   60   1       0.1300   0.0000
  131   62   1       0.1255   0.0000
  131   64   1       0.1211   0.0000
  131   66   1       0.0000   0.0000
  131   68   1       0.0535   0.0000
  131   70   1       0.0000   0.0000
  131   72   1       0.0980   0.0000
  131   74   1       0.2094   0.0000
  131   76   1       0.2201   0.0000
  131   78   1       0.1664   0.0000
  131   80   1       0.4454   0.0000
  131   82   1       0.0706   0.0000
  131   84   1       0.1625   0.0000
  131   86   1       0.1625   0.0000
  131   88   1       0.1625   0.0000
  131   90   1       0.1625   0.0000
  131   92   1       0.1625   0.0000
  131   94   1       0.1625   0.0000
  131   96   1       0.1625   0.0000
  131   98   1       0.1480   0.0000
  131  100   1       0.1480   0.0000
  131  102   1       0.1575   0.0000
  131  104   1       0.1533   0.0000
  131  106   1       0.1533   0.0000
  131  108   1       0.1500   0.0000
  131  110   1       0.1480   0.0000
  131  112   1       0.1871   0.0000
  131  114   1       0.1782   0.0000
  131  116   1       0.1782   0.0000
  131  118   1       0.1700   0.0000
  131  120   1       0.0000   0.0000
  131  122   1       0.2368   0.0000
  131  124   1       0.2633   0.0000
  131  132   1       0.1013   0.0000
  131  134   1       0.0980   0.0000
  131  136   1       0.0000   0.0000
  131  138   1       0.1582   0.0000
  131  140   1       0.0000   0.0000
  131  142   1       0.1577   0.0000
  131  144   1       0.0000   0.0000
  131  146   1       0.1560   0.0000
  131  148   1       0.0000   0.0000
  131  150   1       0.1583   0.0000
  131  152   1       0.0000   0.0000
  131  154   1       0.0000   0.0000
  131  156   1       0.0000   0.0000
  131  158   1       0.1700   0.0000
  131  160   1       0.1325   0.0000
  131  162   1       0.1700   0.0000
  131  164   1       0.1480   0.0000
  131  166   1       0.1625   0.0000
  131  168   1       0.1236   0.0000
  131  170   1       0.1700   0.0000
  131  172   1       0.1300   0.0000
  131  176   1       0.1625   0.0000
  131  178   1       0.0980   0.0000
  131  180   1       0.1625   0.0000
  131  182   1       0.0535   0.0000
  133    0   1       0.1013   0.0000
  133    2   1       0.2713   0.1125
  133    4   1       0.2713   0.1125
  133    6   1       0.2713   0.1125
  133    8   1       0.2713   0.1125
  133   10   1       0.2713   0.1125
  133   12   1       0.2713   0.1125
  133   14   1       0.2713   0.1125
  133   16   1       0.2713   0.1125
  133   18   1       0.2713   0.1125
  133   20   1       0.2713   0.1125
  133   22   1       0.2713   0.1125
  133   24   1       0.2713   0.1269
  133   26   1       0.2713   0.1269
  133   28   1       0.2713   0.1269
  133   30   1       0.2713   0.1269
  133   32   1       0.2713   0.1269
  133   34   1       0.2713   0.1269
  133   36   1       0.2713   0.1269
  133   38   1       0.2713   0.1125
  133   40   1       0.2713   0.1125
  133   42   1       0.2713   0.1125
  133   44   1       0.2539   0.2601
  133   46   1       0.2572   0.0947
  133   48   1       0.1547   0.0481
  133   50   1       0.1547   0.0481
  133   52   1       0.2338   0.0481
  133   54   1       0.2249   0.0481
  133   56   1       0.2160   0.0481
  133   58   1       0.2070   0.0481
  133   60   1       0.2313   0.0470
  133   62   1       0.2268   0.0470
  133   64   1       0.2224   0.0470
  133   66   1       0.1013   0.0000
  133   68   1       0.1547   0.0481
  133   70   1       0.1013   0.0000
  133   72   1       0.1993   0.0481
  133   74   1       0.3107   0.2426
  133   76   1       0.3213   0.1213
  133   78   1       0.2677   0.0202
  133   80   1       0.5467   0.1213
  133   82   1       0.1719   0.3628
  133   84   1       0.2638   0.1582
  133   86   1       0.2638   0.1582
  133   88   1       0.2638   0.1582
  133   90   1       0.2638   0.1582
  133   92   1       0.2638   0.1582
  133   94   1       0.2638   0.1582
  133   96   1       0.2638   0.1582
  133   98   1       0.2493   0.1758
  133  100   1       0.2493   0.1758
  133  102   1       0.2588   0.1496
  133  104   1       0.2546   0.1759
  133  106   1       0.2546   0.1759
  133  108   1       0.2513   0.1582
  133  110   1       0.2493   0.1758
  133  112   1       0.2884   0.1715
  133  114   1       0.2795   0.1918
  133  116   1       0.2795   0.1918
  133  118   1       0.2713   0.1125
  133  120   1       0.1013   0.0000
  133  122   1       0.3381   0.0069
  133  124   1       0.3646   0.0050
  133  132   1       0.2026   0.0519
  133  134   1       0.1993   0.0429
  133  136   1       0.1013   0.0000
  133  138   1       0.2595   0.1547
  133  140   1       0.1013   0.0000
  133  142   1       0.2590   0.1510
  133  144   1       0.1013   0.0000
  133  146   1       0.2573   0.1534
  133  148   1       0.1013   0.0000
  133  150   1       0.2595   0.1874
  133  152   1       0.1013   0.0000
  133  154   1       0.1013   0.0000
  133  156   1       0.1013   0.0000
  133  158   1       0.2713   0.1269
  133  160   1       0.2338   0.0481
  133  162   1       0.2713   0.1125
  133  164   1       0.2493   0.1758
  133  166   1       0.2638   0.1582
  133  168   1       0.2249   0.0481
  133  170   1       0.2713   0.1125
  133  172   1       0.2313   0.0470
  133  176   1       0.2638   0.1582
  133  178   1       0.1993   0.0481
  133  180   1       0.2638   0.1582
  133  182   1       0.1547   0.0481
  135    0   1       0.0980   0.0000
  135    2   1       0.2680   0.0930
  135    4   1       0.2680   0.0930
  135    6   1       0.2680   0.0930
  135    8   1       0.2680   0.0930
  135   10   1       0.2680   0.0930
  135   12   1       0.2680   0.0930
  135   14   1       0.2680   0.0930
  135   16   1       0.2680   0.0930
  135   18   1       0.2680   0.0930
  135   20   1       0.2680   0.0930
  135   22   1       0.2680   0.0930
  135   24   1       0.2680   0.1049
  135   26   1       0.2680   0.1049
  135   28   1       0.2680   0.1049
  135   30   1       0.2680   0.1049
  135   32   1       0.2680   0.1049
  135   34   1       0.2680   0.1049
  135   36   1       0.2680   0.1049
  135   38   1       0.2680   0.0930
  135   40   1       0.2680   0.0930
  135   42   1       0.2680   0.0930
  135   44   1       0.2506   0.2150
  135   46   1       0.2539   0.0783
  135   48   1       0.1515   0.0397
  135   50   1       0.1515   0.0397
  135   52   1       0.2305   0.0397
  135   54   1       0.2216   0.0397
  135   56   1       0.2127   0.0397
  135   58   1       0.2037   0.0397
  135   60   1       0.2280   0.0388
  135   62   1       0.2235   0.0388
  135   64   1       0.2191   0.0388
  135   66   1       0.0980   0.0000
  135   68   1       0.1515   0.0397
  135   70   1       0.0980   0.0000
  135   72   1       0.1960   0.0397
  135   74   1       0.3074   0.2005
  135   76   1       0.3181   0.1002
  135   78   1       0.2644   0.0167
  135   80   1       0.5434   0.1002
  135   82   1       0.1686   0.2999
  135   84   1       0.2605   0.1307
  135   86   1       0.2605   0.1307
  135   88   1       0.2605   0.1307
  135   90   1       0.2605   0.1307
  135   92   1       0.2605   0.1307
  135   94   1       0.2605   0.1307
  135   96   1       0.2605   0.1307
  135   98   1       0.2460   0.1453
  135  100   1       0.2460   0.1453
  135  102   1       0.2555   0.1236
  135  104   1       0.2513   0.1454
  135  106   1       0.2513   0.1454
  135  108   1       0.2480   0.1307
  135  110   1       0.2460   0.1453
  135  112   1       0.2851   0.1418
  135  114   1       0.2762   0.1585
  135  116   1       0.2762   0.1585
  135  118   1       0.2680   0.0930
  135  120   1       0.0980   0.0000
  135  122   1       0.3348   0.0057
  135  124   1       0.3613   0.0041
  135  132   1       0.1993   0.0429
  135  134   1       0.1960   0.0354
  135  136   1       0.0980   0.0000
  135  138   1       0.2562   0.1279
  135  140   1       0.0980   0.0000
  135  142   1       0.2557   0.1248
  135  144   1       0.0980   0.0000
  135  146   1       0.2540   0.1268
  135  148   1       0.0980   0.0000
  135  150   1       0.2562   0.1549
  135  152   1       0.0980   0.0000
  135  154   1       0.0980   0.0000
  135  156   1       0.0980   0.0000
  135  158   1       0.2680   0.1049
  135  160   1       0.2305   0.0397
  135  162   1       0.2680   0.0930
  135  164   1       0.2460   0.1453
  135  166   1       0.2605   0.1307
  135  168   1       0.2216   0.0397
  135  170   1       0.2680   0.0930
  135  172   1       0.2280   0.0388
  135  176   1       0.2605   0.1307
  135  178   1       0.1960   0.0397
  135  180   1       0.2605   0.1307
  135  182   1       0.1515   0.0397
  137    0   1       0.0000   0.0000
  137    2   1       0.1700   0.0000
  137    4   1       0.1700   0.0000
  137    6   1       0.1700   0.0000
  137    8   1       0.1700   0.0000
  137   10   1       0.1700   0.0000
  137   12   1       0.1700   0.0000
  137   14   1       0.1700   0.0000
  137   16   1       0.1700   0.0000
  137   18   1       0.1700   0.0000
  137   20   1       0.1700   0.0000
  137   22   1       0.1700   0.0000
  137   24   1       0.1700   0.0000
  137   26   1       0.1700   0.0000
  137   28   1       0.1700   0.0000
  137   30   1       0.1700   0.0000
  137   32   1       0.1700   0.0000
  137   34   1       0.1700   0.0000
  137   36   1       0.1700   0.0000
  137   38   1       0.1700   0.0000
  137   40   1       0.1700   0.0000
  137   42   1       0.1700   0.0000
  137   44   1       0.1526   0.0000
  137   46   1       0.1559   0.0000
  137   48   1       0.0535   0.0000
  137   50   1       0.0535   0.0000
  137   52   1       0.1325   0.0000
  137   54   1       0.1236   0.0000
  137   56   1       0.1147   0.0000
  137   58   1       0.1057   0.0000
  137   60   1       0.1300   0.0000
  137   62   1       0.1255   0.0000
  137   64   1       0.1211   0.0000
  137   66   1       0.0000   0.0000
  137   68   1       0.0535   0.0000
  137   70   1       0.0000   0.0000
  137   72   1       0.0980   0.0000
  137   74   1       0.2094   0.0000
  137   76   1       0.2201   0.0000
  137   78   1       0.1664   0.0000
  137   80   1       0.4454   0.0000
  137   82   1       0.0706   0.0000
  137   84   1       0.1625   0.0000
  137   86   1       0.1625   0.0000
  137   88   1       0.1625   0.0000
  137   90   1       0.1625   0.0000
  137   92   1       0.1625   0.0000
  137   94   1       0.1625   0.0000
  137   96   1       0.1625   0.0000
  137   98   1       0.1480   0.0000
  137  100   1       0.1480   0.0000
  137  102   1       0.1575   0.0000
  137  104   1       0.1533   0.0000
  137  106   1       0.1533   0.0000
  137  108   1       0.1500   0.0000
  137  110   1       0.1480   0.0000
  137  112   1       0.1871   0.0000
  137  114   1       0.1782   0.0000
  137  116   1       0.1782   0.0000
  137  118   1       0.1700   0.0000
  137  120   1       0.0000   0.0000
  137  122   1       0.2368   0.0000
  137  124   1       0.2633   0.0000
  137  132   1       0.1013   0.0000
  137  134   1       0.0980   0.0000
  137  136   1       0.0000   0.0000
  137  138   1       0.1582   0.0000
  137  140   1       0.0000   0.0000
  137  142   1       0.1577   0.0000
  137  144   1       0.0000   0.0000
  137  146   1       0.1560   0.0000
  137  148   1       0.0000   0.0000
  137  150   1       0.1583   0.0000
  137  152   1       0.0000   0.0000
  137  154   1       0.0000   0.0000
  137  156   1       0.0000   0.0000
  137  158   1       0.1700   0.0000
  137  160   1       0.1325   0.0000
  137  162   1       0.1700   0.0000
  137  164   1       0.1480   0.0000
  137  166   1       0.1625   0.0000
  137  168   1       0.1236   0.0000
  137  170   1       0.1700   0.0000
  137  172   1       0.1300   0.0000
  137  176   1       0.1625   0.0000
  137  178   1       0.0980   0.0000
  137  180   1       0.1625   0.0000
  137  182   1       0.0535   0.0000
  139    0   1       0.1582   0.0000
  139    2   1       0.3282   0.3355
  139    4   1       0.3282   0.3355
  139    6   1       0.3282   0.3355
  139    8   1       0.3282   0.3355
  139   10   1       0.3282   0.3355
  139   12   1       0.3282   0.3355
  139   14   1       0.3282   0.3355
  139   16   1       0.3282   0.3355
  139   18   1       0.3282   0.3355
  139   20   1       0.3282   0.3355
  139   22   1       0.3282   0.3355
  139   24   1       0.3282   0.3784
  139   26   1       0.3282   0.3784
  139   28   1       0.3282   0.3784
  139   30   1       0.3282   0.3784
  139   32   1       0.3282   0.3784
  139   34   1       0.3282   0.3784
  139   36   1       0.3282   0.3784
  139   38   1       0.3282   0.3355
  139   40   1       0.3282   0.3355
  139   42   1       0.3282   0.3355
  139   44   1       0.3108   0.7756
  139   46   1       0.3141   0.2825
  139   48   1       0.2117   0.1433
  139   50   1       0.2117   0.1433
  139   52   1       0.2907   0.1433
  139   54   1       0.2818   0.1433
  139   56   1       0.2729   0.1433
  139   58   1       0.2640   0.1433
  139   60   1       0.2882   0.1401
  139   62   1       0.2837   0.1401
  139   64   1       0.2793   0.1401
  139   66   1       0.1582   0.0000
  139   68   1       0.2117   0.1433
  139   70   1       0.1582   0.0000
  139   72   1       0.2562   0.1433
  139   74   1       0.3676   0.7235
  139   76   1       0.3783   0.3617
  139   78   1       0.3246   0.0602
  139   80   1       0.6037   0.3617
  139   82   1       0.2288   1.0820
  139   84   1       0.3207   0.4716
  139   86   1       0.3207   0.4716
  139   88   1       0.3207   0.4716
  139   90   1       0.3207   0.4716
  139   92   1       0.3207   0.4716
  139   94   1       0.3207   0.4716
  139   96   1       0.3207   0.4716
  139   98   1       0.3062   0.5242
  139  100   1       0.3062   0.5242
  139  102   1       0.3157   0.4461
  139  104   1       0.3115   0.5247
  139  106   1       0.3115   0.5247
  139  108   1       0.3082   0.4716
  139  110   1       0.3062   0.5242
  139  112   1       0.3453   0.5116
  139  114   1       0.3364   0.5719
  139  116   1       0.3364   0.5719
  139  118   1       0.3282   0.3355
  139  120   1       0.1582   0.0000
  139  122   1       0.3950   0.0207
  139  124   1       0.4216   0.0149
  139  132   1       0.2595   0.1547
  139  134   1       0.2562   0.1279
  139  136   1       0.1582   0.0000
  139  138   1       0.3164   0.4615
  139  140   1       0.1582   0.0000
  139  142   1       0.3159   0.4504
  139  144   1       0.1582   0.0000
  139  146   1       0.3142   0.4576
  139  148   1       0.1582   0.0000
  139  150   1       0.3165   0.5589
  139  152   1       0.1582   0.0000
  139  154   1       0.1582   0.0000
  139  156   1       0.1582   0.0000
  139  158   1       0.3282   0.3784
  139  160   1       0.2907   0.1433
  139  162   1       0.3282   0.3355
  139  164   1       0.3062   0.5242
  139  166   1       0.3207   0.4716
  139  168   1       0.2818   0.1433
  139  170   1       0.3282   0.3355
  139  172   1       0.2882   0.1401
  139  176   1       0.3207   0.4716
  139  178   1       0.2562   0.1433
  139  180   1       0.3207   0.4716
  139  182   1       0.2117   0.1433
  141    0   1       0.0000   0.0000
  141    2   1       0.1700   0.0000
  141    4   1       0.1700   0.0000
  141    6   1       0.1700   0.0000
  141    8   1       0.1700   0.0000
  141   10   1       0.1700   0.0000
  141   12   1       0.1700   0.0000
  141   14   1       0.1700   0.0000
  141   16   1       0.1700   0.0000
  141   18   1       0.1700   0.0000
  141   20   1       0.1700   0.0000
  141   22   1       0.1700   0.0000
  141   24   1       0.1700   0.0000
  141   26   1       0.1700   0.0000
  141   28   1       0.1700   0.0000
  141   30   1       0.1700   0.0000
  141   32   1       0.1700   0.0000
  141   34   1       0.1700   0.0000
  141   36   1       0.1700   0.0000
  141   38   1       0.1700   0.0000
  141   40   1       0.1700   0.0000
  141   42   1       0.1700   0.0000
  141   44   1       0.1526   0.0000
  141   46   1       0.1559   0.0000
  141   48   1       0.0535   0.0000
  141   50   1       0.0535   0.0000
  141   52   1       0.1325   0.0000
  141   54   1       0.1236   0.0000
  141   56   1       0.1147   0.0000
  141   58   1       0.1057   0.0000
  141   60   1       0.1300   0.0000
  141   62   1       0.1255   0.0000
  141   64   1       0.1211   0.0000
  141   66   1       0.0000   0.0000
  141   68   1       0.0535   0.0000
  141   70   1       0.0000   0.0000
  141   72   1       0.0980   0.0000
  141   74   1       0.2094   0.0000
  141   76   1       0.2201   0.0000
  141   78   1       0.1664   0.0000
  141   80   1       0.4454   0.0000
  141   82   1       0.0706   0.0000
  141   84   1       0.1625   0.0000
  141   86   1       0.1625   0.0000
  141   88   1       0.1625   0.0000
  141   90   1       0.1625   0.0000
  141   92   1       0.1625   0.0000
  141   94   1       0.1625   0.0000
  141   96   1       0.1625   0.0000
  141   98   1       0.1480   0.0000
  141  100   1       0.1480   0.0000
  141  102   1       0.1575   0.0000
  141  104   1       0.1533   0.0000
  141  106   1       0.1533   0.0000
  141  108   1       0.1500   0.0000
  141  110   1       0.1480   0.0000
  141  112   1       0.1871   0.0000
  141  114   1       0.1782   0.0000
  141  116   1       0.1782   0.0000
  141  118   1       0.1700   0.0000
  141  120   1       0.0000   0.0000
  141  122   1       0.2368   0.0000
  141  124   1       0.2633   0.0000
  141  132   1       0.1013   0.0000
  141  134   1       0.0980   0.0000
  141  136   1       0.0000   0.0000
  141  138   1       0.1582   0.0000
  141  140   1       0.0000   0.0000
  141  142   1       0.1577   0.0000
  141  144   1       0.0000   0.0000
  141  146   1       0.1560   0.0000
  141  148   1       0.0000   0.0000
  141  150   1       0.1583   0.0000
  141  152   1       0.0000   0.0000
  141  154   1       0.0000   0.0000
  141  156   1       0.0000   0.0000
  141  158   1       0.1700   0.0000
  141  160   1       0.1325   0.0000
  141  162   1       0.1700   0.0000
  141  164   1       0.1480   0.0000
  141  166   1       0.1625   0.0000
  141  168   1       0.1236   0.0000
  141  170   1       0.1700   0.0000
  141  172   1       0.1300   0.0000
  141  176   1       0.1625   0.0000
  141  178   1       0.0980   0.0000
  141  180   1       0.1625   0.0000
  141  182   1       0.0535   0.0000
  143    0   1       0.1577   0.0000
  143    2   1       0.3277   0.3274
  143    4   1       0.3277   0.3274
  143    6   1       0.3277   0.3274
  143    8   1       0.3277   0.3274
  143   10   1       0.3277   0.3274
  143   12   1       0.3277   0.3274
  143   14   1       0.3277   0.3274
  143   16   1       0.3277   0.3274
  143   18   1       0.3277   0.3274
  143   20   1       0.3277   0.3274
  143   22   1       0.3277   0.3274
  143   24   1       0.3277   0.3692
  143   26   1       0.3277   0.3692
  143   28   1       0.3277   0.3692
  143   30   1       0.3277   0.3692
  143   32   1       0.3277   0.3692
  143   34   1       0.3277   0.3692
  143   36   1       0.3277   0.3692
  143   38   1       0.3277   0.3274
  143   40   1       0.3277   0.3274
  143   42   1       0.3277   0.3274
  143   44   1       0.3103   0.7570
  143   46   1       0.3136   0.2757
  143   48   1       0.2111   0.1399
  143   50   1       0.2111   0.1399
  143   52   1       0.2902   0.1399
  143   54   1       0.2812   0.1399
  143   56   1       0.2723   0.1399
  143   58   1       0.2634   0.1399
  143   60   1       0.2877   0.1367
  143   62   1       0.2832   0.1367
  143   64   1       0.2788   0.1367
  143   66   1       0.1577   0.0000
  143   68   1       0.2111   0.1399
  143   70   1       0.1577   0.0000
  143   72   1       0.2557   0.1399
  143   74   1       0.3670   0.7060
  143   76   1       0.3777   0.3530
  143   78   1       0.3241   0.0588
  143   80   1       0.6031   0.3530
  143   82   1       0.2283   1.0559
  143   84   1       0.3202   0.4603
  143   86   1       0.3202   0.4603
  143   88   1       0.3202   0.4603
  143   90   1       0.3202   0.4603
  143   92   1       0.3202   0.4603
  143   94   1       0.3202   0.4603
  143   96   1       0.3202   0.4603
  143   98   1       0.3057   0.5116
  143  100   1       0.3057   0.5116
  143  102   1       0.3152   0.4354
  143  104   1       0.3110   0.5121
  143  106   1       0.3110   0.5121
  143  108   1       0.3077   0.4603
  143  110   1       0.3057   0.5116
  143  112   1       0.3448   0.4992
  143  114   1       0.3359   0.5582
  143  116   1       0.3359   0.5582
  143  118   1       0.3277   0.3274
  143  120   1       0.1577   0.0000
  143  122   1       0.3945   0.0202
  143  124   1       0.4210   0.0146
  143  132   1       0.2590   0.1510
  143  134   1       0.2557   0.1248
  143  136   1       0.1577   0.0000
  143  138   1       0.3159   0.4504
  143  140   1       0.1577   0.0000
  143  142   1       0.3154   0.4395
  143  144   1       0.1577   0.0000
  143  146   1       0.3137   0.4465
  143  148   1       0.1577   0.0000
  143  150   1       0.3159   0.5455
  143  152   1       0.1577   0.0000
  143  154   1       0.1577   0.0000
  143  156   1       0.1577   0.0000
  143  158   1       0.3277   0.3692
  143  160   1       0.2902   0.1399
  143  162   1       0.3277   0.3274
  143  164   1       0.3057   0.5116
  143  166   1       0.3202   0.4603
  143  168   1       0.2812   0.1399
  143  170   1       0.3277   0.3274
  143  172   1       0.2877   0.1367
  143  176   1       0.3202   0.4603
  143  178   1       0.2557   0.1399
  143  180   1       0.3202   0.4603
  143  182   1       0.2111   0.1399
  145    0   1       0.0000   0.0000
  145    2   1       0.1700   0.0000
  145    4   1       0.1700   0.0000
  145    6   1       0.1700   0.0000
  145    8   1       0.1700   0.0000
  145   10   1       0.1700   0.0000
  145   12   1       0.1700   0.0000
  145   14   1       0.1700   0.0000
  145   16   1       0.1700   0.0000
  145   18   1       0.1700   0.0000
  145   20   1       0.1700   0.0000
  145   22   1       0.1700   0.0000
  145   24   1       0.1700   0.0000
  145   26   1       0.1700   0.0000
  145   28   1       0.1700   0.0000
  145   30   1       0.1700   0.0000
  145   32   1       0.1700   0.0000
  145   34   1       0.1700   0.0000
  145   36   1       0.1700   0.0000
  145   38   1       0.1700   0.0000
  145   40   1       0.1700   0.0000
  145   42   1       0.1700   0.0000
  145   44   1       0.1526   0.0000
  145   46   1       0.1559   0.0000
  145   48   1       0.0535   0.0000
  145   50   1       0.0535   0.0000
  145   52   1       0.1325   0.0000
  145   54   1       0.1236   0.0000
  145   56   1       0.1147   0.0000
  145   58   1       0.1057   0.0000
  145   60   1       0.1300   0.0000
  145   62   1       0.1255   0.0000
  145   64   1       0.1211   0.0000
  145   66   1       0.0000   0.0000
  145   68   1       0.0535   0.0000
  145   70   1       0.0000   0.0000
  145   72   1       0.0980   0.0000
  145   74   1       0.2094   0.0000
  145   76   1       0.2201   0.0000
  145   78   1       0.1664   0.0000
  145   80   1       0.4454   0.0000
  145   82   1       0.0706   0.0000
  145   84   1       0.1625   0.0000
  145   86   1       0.1625   0.0000
  145   88   1       0.1625   0.0000
  145   90   1       0.1625   0.0000
  145   92   1       0.1625   0.0000
  145   94   1       0.1625   0.0000
  145   96   1       0.1625   0.0000
  145   98   1       0.1480   0.0000
  145  100   1       0.1480   0.0000
  145  102   1       0.1575   0.0000
  145  104   1       0.1533   0.0000
  145  106   1       0.1533   0.0000
  145  108   1       0.1500   0.0000
  145  110   1       0.1480   0.0000
  145  112   1       0.1871   0.0000
  145  114   1       0.1782   0.0000
  145  116   1       0.1782   0.0000
  145  118   1       0.1700   0.0000
  145  120   1       0.0000   0.0000
  145  122   1       0.2368   0.0000
  145  124   1       0.2633   0.0000
  145  132   1       0.1013   0.0000
  145  134   1       0.0980   0.0000
  145  136   1       0.0000   0.0000
  145  138   1       0.1582   0.0000
  145  140   1       0.0000   0.0000
  145  142   1       0.1577   0.0000
  145  144   1       0.0000   0.0000
  145  146   1       0.1560   0.0000
  145  148   1       0.0000   0.0000
  145  150   1       0.1583   0.0000
  145  152   1       0.0000   0.0000
  145  154   1       0.0000   0.0000
  145  156   1       0.0000   0.0000
  145  158   1       0.1700   0.0000
  145  160   1       0.1325   0.0000
  145  162   1       0.1700   0.0000
  145  164   1       0.1480   0.0000
  145  166   1       0.1625   0.0000
  145  168   1       0.1236   0.0000
  145  170   1       0.1700   0.0000
  145  172   1       0.1300   0.0000
  145  176   1       0.1625   0.0000
  145  178   1       0.0980   0.0000
  145  180   1       0.1625   0.0000
  145  182   1       0.0535   0.0000
  147    0   1       0.1560   0.0000
  147    2   1       0.3260   0.3326
  147    4   1       0.3260   0.3326
  147    6   1       0.3260   0.3326
  147    8   1       0.3260   0.3326
  147   10   1       0.3260   0.3326
  147   12   1       0.3260   0.3326
  147   14   1       0.3260   0.3326
  147   16   1       0.3260   0.3326
  147   18   1       0.3260   0.3326
  147   20   1       0.3260   0.3326
  147   22   1       0.3260   0.3326
  147   24   1       0.3260   0.3751
  147   26   1       0.3260   0.3751
  147   28   1       0.3260   0.3751
  147   30   1       0.3260   0.3751
  147   32   1       0.3260   0.3751
  147   34   1       0.3260   0.3751
  147   36   1       0.3260   0.3751
  147   38   1       0.3260   0.3326
  147   40   1       0.3260   0.3326
  147   42   1       0.3260   0.3326
  147   44   1       0.3086   0.7691
  147   46   1       0.3119   0.2801
  147   48   1       0.2095   0.1421
  147   50   1       0.2095   0.1421
  147   52   1       0.2885   0.1421
  147   54   1       0.2796   0.1421
  147   56   1       0.2707   0.1421
  147   58   1       0.2617   0.1421
  147   60   1       0.2860   0.1389
  147   62   1       0.2815   0.1389
  147   64   1       0.2771   0.1389
  147   66   1       0.1560   0.0000
  147   68   1       0.2095   0.1421
  147   70   1       0.1560   0.0000
  147   72   1       0.2540   0.1421
  147   74   1       0.3654   0.7173
  147   76   1       0.3761   0.3587
  147   78   1       0.3224   0.0597
  147   80   1       0.6014   0.3587
  147   82   1       0.2266   1.0728
  147   84   1       0.3185   0.4676
  147   86   1       0.3185   0.4676
  147   88   1       0.3185   0.4676
  147   90   1       0.3185   0.4676
  147   92   1       0.3185   0.4676
  147   94   1       0.3185   0.4676
  147   96   1       0.3185   0.4676
  147   98   1       0.3040   0.5197
  147  100   1       0.3040   0.5197
  147  102   1       0.3135   0.4423
  147  104   1       0.3093   0.5202
  147  106   1       0.3093   0.5202
  147  108   1       0.3060   0.4676
  147  110   1       0.3040   0.5197
  147  112   1       0.3431   0.5072
  147  114   1       0.3342   0.5671
  147  116   1       0.3342   0.5671
  147  118   1       0.3260   0.3326
  147  120   1       0.1560   0.0000
  147  122   1       0.3928   0.0205
  147  124   1       0.4193   0.0148
  147  132   1       0.2573   0.1534
  147  134   1       0.2540   0.1268
  147  136   1       0.1560   0.0000
  147  138   1       0.3142   0.4576
  147  140   1       0.1560   0.0000
  147  142   1       0.3137   0.4465
  147  144   1       0.1560   0.0000
  147  146   1       0.3120   0.4537
  147  148   1       0.1560   0.0000
  147  150   1       0.3142   0.5542
  147  152   1       0.1560   0.0000
  147  154   1       0.1560   0.0000
  147  156   1       0.1560   0.0000
  147  158   1       0.3260   0.3751
  147  160   1       0.2885   0.1421
  147  162   1       0.3260   0.3326
  147  164   1       0.3040   0.5197
  147  166   1       0.3185   0.4676
  147  168   1       0.2796   0.1421
  147  170   1       0.3260   0.3326
  147  172   1       0.2860   0.1389
  147  176   1       0.3185   0.4676
  147  178   1       0.2540   0.1421
  147  180   1       0.3185   0.4676
  147  182   1       0.2095   0.1421
  149    0   1       0.0000   0.0000
  149    2   1       0.1700   0.0000
  149    4   1       0.1700   0.0000
  149    6   1       0.1700   0.0000
  149    8   1       0.1700   0.0000
  149   10   1       0.1700   0.0000
  149   12   1       0.1700   0.0000
  149   14   1       0.1700   0.0000
  149   16   1       0.1700   0.0000
  149   18   1       0.1700   0.0000
  149   20   1       0.1700   0.0000
  149   22   1       0.1700   0.0000
  149   24   1       0.1700   0.0000
  149   26   1       0.1700   0.0000
  149   28   1       0.1700   0.0000
  149   30   1       0.1700   0.0000
  149   32   1       0.1700   0.0000
  149   34   1       0.1700   0.0000
  149   36   1       0.1700   0.0000
  149   38   1       0.1700   0.0000
  149   40   1       0.1700   0.0000
  149   42   1       0.1700   0.0000
  149   44   1       0.1526   0.0000
  149   46   1       0.1559   0.0000
  149   48   1       0.0535   0.0000
  149   50   1       0.0535   0.0000
  149   52   1       0.1325   0.0000
  149   54   1       0.1236   0.0000
  149   56   1       0.1147   0.0000
  149   58   1       0.1057   0.0000
  149   60   1       0.1300   0.0000
  149   62   1       0.1255   0.0000
  149   64   1       0.1211   0.0000
  149   66   1       0.0000   0.0000
  149   68   1       0.0535   0.0000
  149   70   1       0.0000   0.0000
  149   72   1       0.0980   0.0000
  149   74   1       0.2094   0.0000
  149   76   1       0.2201   0.0000
  149   78   1       0.1664   0.0000
  149   80   1       0.4454   0.0000
  149   82   1       0.0706   0.0000
  149   84   1       0.1625   0.0000
  149   86   1       0.1625   0.0000
  149   88   1       0.1625   0.0000
  149   90   1       0.1625   0.0000
  149   92   1       0.1625   0.0000
  149   94   1       0.1625   0.0000
  149   96   1       0.1625   0.0000
  149   98   1       0.1480   0.0000
  149  100   1       0.1480   0.0000
  149  102   1       0.1575   0.0000
  149  104   1       0.1533   0.0000
  149  106   1       0.1533   0.0000
  149  108   1       0.1500   0.0000
  149  110   1       0.1480   0.0000
  149  112   1       0.1871   0.0000
  149  114   1       0.1782   0.0000
  149  116   1       0.1782   0.0000
  149  118   1       0.1700   0.0000
  149  120   1       0.0000   0.0000
  149  122   1       0.2368   0.0000
  149  124   1       0.2633   0.0000
  149  132   1       0.1013   0.0000
  149  134   1       0.0980   0.0000
  149  136   1       0.0000   0.0000
  149  138   1       0.1582   0.0000
  149  140   1       0.0000   0.0000
  149  142   1       0.1577   0.0000
  149  144   1       0.0000   0.0000
  149  146   1       0.1560   0.0000
  149  148   1       0.0000   0.0000
  149  150   1       0.1583   0.0000
  149  152   1       0.0000   0.0000
  149  154   1       0.0000   0.0000
  149  156   1       0.0000   0.0000
  149  158   1       0.1700   0.0000
  149  160   1       0.1325   0.0000
  149  162   1       0.1700   0.0000
  149  164   1       0.1480   0.0000
  149  166   1       0.1625   0.0000
  149  168   1       0.1236   0.0000
  149  170   1       0.1700   0.0000
  149  172   1       0.1300   0.0000
  149  176   1       0.1625   0.0000
  149  178   1       0.0980   0.0000
  149  180   1       0.1625   0.0000
  149  182   1       0.0535   0.0000
  151    0   1       0.1583   0.0000
  151    2   1       0.3282   0.4063
  151    4   1       0.3282   0.4063
  151    6   1       0.3282   0.4063
  151    8   1       0.3282   0.4063
  151   10   1       0.3282   0.4063
  151   12   1       0.3282   0.4063
  151   14   1       0.3282   0.4063
  151   16   1       0.3282   0.4063
  151   18   1       0.3282   0.4063
  151   20   1       0.3282   0.4063
  151   22   1       0.3282   0.4063
  151   24   1       0.3282   0.4583
  151   26   1       0.3282   0.4583
  151   28   1       0.3282   0.4583
  151   30   1       0.3282   0.4583
  151   32   1       0.3282   0.4583
  151   34   1       0.3282   0.4583
  151   36   1       0.3282   0.4583
  151   38   1       0.3282   0.4063
  151   40   1       0.3282   0.4063
  151   42   1       0.3282   0.4063
  151   44   1       0.3109   0.9395
  151   46   1       0.3142   0.3422
  151   48   1       0.2117   0.1736
  151   50   1       0.2117   0.1736
  151   52   1       0.2907   0.1736
  151   54   1       0.2818   0.1736
  151   56   1       0.2729   0.1736
  151   58   1       0.2640   0.1736
  151   60   1       0.2882   0.1697
  151   62   1       0.2838   0.1697
  151   64   1       0.2793   0.1697
  151   66   1       0.1583   0.0000
  151   68   1       0.2117   0.1736
  151   70   1       0.1583   0.0000
  151   72   1       0.2562   0.1736
  151   74   1       0.3676   0.8763
  151   76   1       0.3783   0.4381
  151   78   1       0.3247   0.0729
  151   80   1       0.6037   0.4381
  151   82   1       0.2289   1.3105
  151   84   1       0.3207   0.5713
  151   86   1       0.3207   0.5713
  151   88   1       0.3207   0.5713
  151   90   1       0.3207   0.5713
  151   92   1       0.3207   0.5713
  151   94   1       0.3207   0.5713
  151   96   1       0.3207   0.5713
  151   98   1       0.3062   0.6349
  151  100   1       0.3062   0.6349
  151  102   1       0.3158   0.5403
  151  104   1       0.3116   0.6355
  151  106   1       0.3116   0.6355
  151  108   1       0.3083   0.5713
  151  110   1       0.3062   0.6349
  151  112   1       0.3453   0.6196
  151  114   1       0.3364   0.6928
  151  116   1       0.3364   0.6928
  151  118   1       0.3282   0.4063
  151  120   1       0.1583   0.0000
  151  122   1       0.3951   0.0251
  151  124   1       0.4216   0.0181
  151  132   1       0.2595   0.1874
  151  134   1       0.2562   0.1549
  151  136   1       0.1583   0.0000
  151  138   1       0.3165   0.5589
  151  140   1       0.1583   0.0000
  151  142   1       0.3159   0.5455
  151  144   1       0.1583   0.0000
  151  146   1       0.3142   0.5542
  151  148   1       0.1583   0.0000
  151  150   1       0.3165   0.6770
  151  152   1       0.1583   0.0000
  151  154   1       0.1583   0.0000
  151  156   1       0.1583   0.0000
  151  158   1       0.3282   0.4583
  151  160   1       0.2907   0.1736
  151  162   1       0.3282   0.4063
  151  164   1       0.3062   0.6349
  151  166   1       0.3207   0.5713
  151  168   1       0.2818   0.1736
  151  170   1       0.3282   0.4063
  151  172   1       0.2882   0.1697
  151  176   1       0.3207   0.5713
  151  178   1       0.2562   0.1736
  151  180   1       0.3207   0.5713
  151  182   1       0.2117   0.1736
  153    0   1       0.0000   0.0000
  153    2   1       0.1700   0.0000
  153    4   1       0.1700   0.0000
  153    6   1       0.1700   0.0000
  153    8   1       0.1700   0.0000
  153   10   1       0.1700   0.0000
  153   12   1       0.1700   0.0000
  153   14   1       0.1700   0.0000
  153   16   1       0.1700   0.0000
  153   18   1       0.1700   0.0000
  153   20   1       0.1700   0.0000
  153   22   1       0.1700   0.0000
  153   24   1       0.1700   0.0000
  153   26   1       0.1700   0.0000
  153   28   1       0.1700   0.0000
  153   30   1       0.1700   0.0000
  153   32   1       0.1700   0.0000
  153   34   1       0.1700   0.0000
  153   36   1       0.1700   0.0000
  153   38   1       0.1700   0.0000
  153   40   1       0.1700   0.0000
  153   42   1       0.1700   0.0000
  153   44   1       0.1526   0.0000
  153   46   1       0.1559   0.0000
  153   48   1       0.0535   0.0000
  153   50   1       0.0535   0.0000
  153   52   1       0.1325   0.0000
  153   54   1       0.1236   0.0000
  153   56   1       0.1147   0.0000
  153   58   1       0.1057   0.0000
  153   60   1       0.1300   0.0000
  153   62   1       0.1255   0.0000
  153   64   1       0.1211   0.0000
  153   66   1       0.0000   0.0000
  153   68   1       0.0535   0.0000
  153   70   1       0.0000   0.0000
  153   72   1       0.0980   0.0000
  153   74   1       0.2094   0.0000
  153   76   1       0.2201   0.0000
  153   78   1       0.1664   0.0000
  153   80   1       0.4454   0.0000
  153   82   1       0.0706   0.0000
  153   84   1       0.1625   0.0000
  153   86   1       0.1625   0.0000
  153   88   1       0.1625   0.0000
  153   90   1       0.1625   0.0000
  153   92   1       0.1625   0.0000
  153   94   1       0.1625   0.0000
  153   96   1       0.1625   0.0000
  153   98   1       0.1480   0.0000
  153  100   1       0.1480   0.0000
  153  102   1       0.1575   0.0000
  153  104   1       0.1533   0.0000
  153  106   1       0.1533   0.0000
  153  108   1       0.1500   0.0000
  153  110   1       0.1480   0.0000
  153  112   1       0.1871   0.0000
  153  114   1       0.1782   0.0000
  153  116   1       0.1782   0.0000
  153  118   1       0.1700   0.0000
  153  120   1       0.0000   0.0000
  153  122   1       0.2368   0.0000
  153  124   1       0.2633   0.0000
  153  132   1       0.1013   0.0000
  153  134   1       0.0980   0.0000
  153  136   1       0.0000   0.0000
  153  138   1       0.1582   0.0000
  153  140   1       0.0000   0.0000
  153  142   1       0.1577   0.0000
  153  144   1       0.0000   0.0000
  153  146   1       0.1560   0.0000
  153  148   1       0.0000   0.0000
  153  150   1       0.1583   0.0000
  153  152   1       0.0000   0.0000
  153  154   1       0.0000   0.0000
  153  156   1       0.0000   0.0000
  153  158   1       0.1700   0.0000
  153  160   1       0.1325   0.0000
  153  162   1       0.1700   0.0000
  153  164   1       0.1480   0.0000
  153  166   1       0.1625   0.0000
  153  168   1       0.1236   0.0000
  153  170   1       0.1700   0.0000
  153  172   1       0.1300   0.0000
  153  176   1       0.1625   0.0000
  153  178   1       0.0980   0.0000
  153  180   1       0.1625   0.0000
  153  182   1       0.0535   0.0000
  155    0   1       0.0000   0.0000
  155    2   1       0.1700   0.0000
  155    4   1       0.1700   0.0000
  155    6   1       0.1700   0.0000
  155    8   1       0.1700   0.0000
  155   10   1       0.1700   0.0000
  155   12   1       0.1700   0.0000
  155   14   1       0.1700   0.0000
  155   16   1       0.1700   0.0000
  155   18   1       0.1700   0.0000
  155   20   1       0.1700   0.0000
  155   22   1       0.1700   0.0000
  155   24   1       0.1700   0.0000
  155   26   1       0.1700   0.0000
  155   28   1       0.1700   0.0000
  155   30   1       0.1700   0.0000
  155   32   1       0.1700   0.0000
  155   34   1       0.1700   0.0000
  155   36   1       0.1700   0.0000
  155   38   1       0.1700   0.0000
  155   40   1       0.1700   0.0000
  155   42   1       0.1700   0.0000
  155   44   1       0.1526   0.0000
  155   46   1       0.1559   0.0000
  155   48   1       0.0535   0.0000
  155   50   1       0.0535   0.0000
  155   52   1       0.1325   0.0000
  155   54   1       0.1236   0.0000
  155   56   1       0.1147   0.0000
  155   58   1       0.1057   0.0000
  155   60   1       0.1300   0.0000
  155   62   1       0.1255   0.0000
  155   64   1       0.1211   0.0000
  155   66   1       0.0000   0.0000
  155   68   1       0.0535   0.0000
  155   70   1       0.0000   0.0000
  155   72   1       0.0980   0.0000
  155   74   1       0.2094   0.0000
  155   76   1       0.2201   0.0000
  155   78   1       0.1664   0.0000
  155   80   1       0.4454   0.0000
  155   82   1       0.0706   0.0000
  155   84   1       0.1625   0.0000
  155   86   1       0.1625   0.0000
  155   88   1       0.1625   0.0000
  155   90   1       0.1625   0.0000
  155   92   1       0.1625   0.0000
  155   94   1       0.1625   0.0000
  155   96   1       0.1625   0.0000
  155   98   1       0.1480   0.0000
  155  100   1       0.1480   0.0000
  155  102   1       0.1575   0.0000
  155  104   1       0.1533   0.0000
  155  106   1       0.1533   0.0000
  155  108   1       0.1500   0.0000
  155  110   1       0.1480   0.0000
  155  112   1       0.1871   0.0000
  155  114   1       0.1782   0.0000
  155  116   1       0.1782   0.0000
  155  118   1       0.1700   0.0000
  155  120   1       0.0000   0.0000
  155  122   1       0.2368   0.0000
  155  124   1       0.2633   0.0000
  155  132   1       0.1013   0.0000
  155  134   1       0.0980   0.0000
  155  136   1       0.0000   0.0000
  155  138   1       0.1582   0.0000
  155  140   1       0.0000   0.0000
  155  142   1       0.1577   0.0000
  155  144   1       0.0000   0.0000
  155  146   1       0.1560   0.0000
  155  148   1       0.0000   0.0000
  155  150   1       0.1583   0.0000
  155  152   1       0.0000   0.0000
  155  154   1       0.0000   0.0000
  155  156   1       0.0000   0.0000
  155  158   1       0.1700   0.0000
  155  160   1       0.1325   0.0000
  155  162   1       0.1700   0.0000
  155  164   1       0.1480   0.0000
  155  166   1       0.1625   0.0000
  155  168   1       0.1236   0.0000
  155  170   1       0.1700   0.0000
  155  172   1       0.1300   0.0000
  155  176   1       0.1625   0.0000
  155  178   1       0.0980   0.0000
  155  180   1       0.1625   0.0000
  155  182   1       0.0535   0.0000
  157    0   1       0.0000   0.0000
  157    2   1       0.1700   0.0000
  157    4   1       0.1700   0.0000
  157    6   1       0.1700   0.0000
  157    8   1       0.1700   0.0000
  157   10   1       0.1700   0.0000
  157   12   1       0.1700   0.0000
  157   14   1       0.1700   0.0000
  157   16   1       0.1700   0.0000
  157   18   1       0.1700   0.0000
  157   20   1       0.1700   0.0000
  157   22   1       0.1700   0.0000
  157   24   1       0.1700   0.0000
  157   26   1       0.1700   0.0000
  157   28   1       0.1700   0.0000
  157   30   1       0.1700   0.0000
  157   32   1       0.1700   0.0000
  157   34   1       0.1700   0.0000
  157   36   1       0.1700   0.0000
  157   38   1       0.1700   0.0000
  157   40   1       0.1700   0.0000
  157   42   1       0.1700   0.0000
  157   44   1       0.1526   0.0000
  157   46   1       0.1559   0.0000
  157   48   1       0.0535   0.0000
  157   50   1       0.0535   0.0000
  157   52   1       0.1325   0.0000
  157   54   1       0.1236   0.0000
  157   56   1       0.1147   0.0000
  157   58   1       0.1057   0.0000
  157   60   1       0.1300   0.0000
  157   62   1       0.1255   0.0000
  157   64   1       0.1211   0.0000
  157   66   1       0.0000   0.0000
  157   68   1       0.0535   0.0000
  157   70   1       0.0000   0.0000
  157   72   1       0.0980   0.0000
  157   74   1       0.2094   0.0000
  157   76   1       0.2201   0.0000
  157   78   1       0.1664   0.0000
  157   80   1       0.4454   0.0000
  157   82   1       0.0706   0.0000
  157   84   1       0.1625   0.0000
  157   86   1       0.1625   0.0000
  157   88   1       0.1625   0.0000
  157   90   1       0.1625   0.0000
  157   92   1       0.1625   0.0000
  157   94   1       0.1625   0.0000
  157   96   1       0.1625   0.0000
  157   98   1       0.1480   0.0000
  157  100   1       0.1480   0.0000
  157  102   1       0.1575   0.0000
  157  104   1       0.1533   0.0000
  157  106   1       0.1533   0.0000
  157  108   1       0.1500   0.0000
  157  110   1       0.1480   0.0000
  157  112   1       0.1871   0.0000
  157  114   1       0.1782   0.0000
  157  116   1       0.1782   0.0000
  157  118   1       0.1700   0.0000
  157  120   1       0.0000   0.0000
  157  122   1       0.2368   0.0000
  157  124   1       0.2633   0.0000
  157  132   1       0.1013   0.0000
  157  134   1       0.0980   0.0000
  157  136   1       0.0000   0.0000
  157  138   1       0.1582   0.0000
  157  140   1       0.0000   0.0000
  157  142   1       0.1577   0.0000
  157  144   1       0.0000   0.0000
  157  146   1       0.1560   0.0000
  157  148   1       0.0000   0.0000
  157  150   1       0.1583   0.0000
  157  152   1       0.0000   0.0000
  157  154   1       0.0000   0.0000
  157  156   1       0.0000   0.0000
  157  158   1       0.1700   0.0000
  157  160   1       0.1325   0.0000
  157  162   1       0.1700   0.0000
  157  164   1       0.1480   0.0000
  157  166   1       0.1625   0.0000
  157  168   1       0.1236   0.0000
  157  170   1       0.1700   0.0000
  157  172   1       0.1300   0.0000
  157  176   1       0.1625   0.0000
  157  178   1       0.0980   0.0000
  157  180   1       0.1625   0.0000
  157  182   1       0.0535   0.0000
  159    0   1       0.1700   0.0000
  159    2   1       0.3400   0.1345
  159    4   1       0.3400   0.1345
  159    6   1       0.3400   0.1345
  159    8   1       0.3400   0.1345
  159   10   1       0.3400   0.1345
  159   12   1       0.3400   0.1345
  159   14   1       0.3400   0.1345
  159   16   1       0.3400   0.1345
  159   18   1       0.3400   0.1345
  159   20   1       0.3400   0.1345
  159   22   1       0.3400   0.1345
  159   24   1       0.3400   0.1517
  159   26   1       0.3400   0.1517
  159   28   1       0.3400   0.1517
  159   30   1       0.3400   0.1517
  159   32   1       0.3400   0.1517
  159   34   1       0.3400   0.1517
  159   36   1       0.3400   0.1517
  159   38   1       0.3400   0.1345
  159   40   1       0.3400   0.1345
  159   42   1       0.3400   0.1345
  159   44   1       0.3226   0.3109
  159   46   1       0.3259   0.1132
  159   48   1       0.2234   0.0574
  159   50   1       0.2234   0.0574
  159   52   1       0.3025   0.0574
  159   54   1       0.2936   0.0574
  159   56   1       0.2846   0.0574
  159   58   1       0.2757   0.0574
  159   60   1       0.3000   0.0562
  159   62   1       0.2955   0.0562
  159   64   1       0.2911   0.0562
  159   66   1       0.1700   0.0000
  159   68   1       0.2234   0.0574
  159   70   1       0.1700   0.0000
  159   72   1       0.2680   0.0574
  159   74   1       0.3793   0.2900
  159   76   1       0.3900   0.1450
  159   78   1       0.3364   0.0241
  159   80   1       0.6154   0.1450
  159   82   1       0.2406   0.4337
  159   84   1       0.3325   0.1890
  159   86   1       0.3325   0.1890
  159   88   1       0.3325   0.1890
  159   90   1       0.3325   0.1890
  159   92   1       0.3325   0.1890
  159   94   1       0.3325   0.1890
  159   96   1       0.3325   0.1890
  159   98   1       0.3180   0.2101
  159  100   1       0.3180   0.2101
  159  102   1       0.3275   0.1788
  159  104   1       0.3233   0.2103
  159  106   1       0.3233   0.2103
  159  108   1       0.3200   0.1890
  159  110   1       0.3180   0.2101
  159  112   1       0.3571   0.2050
  159  114   1       0.3482   0.2292
  159  116   1       0.3482   0.2292
  159  118   1       0.3400   0.1345
  159  120   1       0.1700   0.0000
  159  122   1       0.4068   0.0083
  159  124   1       0.4333   0.0060
  159  132   1       0.2713   0.0620
  159  134   1       0.2680   0.0513
  159  136   1       0.1700   0.0000
  159  138   1       0.3282   0.1850
  159  140   1       0.1700   0.0000
  159  142   1       0.3277   0.1805
  159  144   1       0.1700   0.0000
  159  146   1       0.3260   0.1834
  159  148   1       0.1700   0.0000
  159  150   1       0.3282   0.2240
  159  152   1       0.1700   0.0000
  159  154   1       0.1700   0.0000
  159  156   1       0.1700   0.0000
  159  158   1       0.3400   0.1517
  159  160   1       0.3025   0.0574
  159  162   1       0.3400   0.1345
  159  164   1       0.3180   0.2101
  159  166   1       0.3325   0.1890
  159  168   1       0.2936   0.0574
  159  170   1       0.3400   0.1345
  159  172   1       0.3000   0.0562
  159  176   1       0.3325   0.1890
  159  178   1       0.2680   0.0574
  159  180   1       0.3325   0.1890
  159  182   1       0.2234   0.0574
  161    0   1       0.1325   0.0000
  161    2   1       0.3025   0.0509
  161    4   1       0.3025   0.0509
  161    6   1       0.3025   0.0509
  161    8   1       0.3025   0.0509
  161   10   1       0.3025   0.0509
  161   12   1       0.3025   0.0509
  161   14   1       0.3025   0.0509
  161   16   1       0.3025   0.0509
  161   18   1       0.3025   0.0509
  161   20   1       0.3025   0.0509
  161   22   1       0.3025   0.0509
  161   24   1       0.3025   0.0574
  161   26   1       0.3025   0.0574
  161   28   1       0.3025   0.0574
  161   30   1       0.3025   0.0574
  161   32   1       0.3025   0.0574
  161   34   1       0.3025   0.0574
  161   36   1       0.3025   0.0574
  161   38   1       0.3025   0.0509
  161   40   1       0.3025   0.0509
  161   42   1       0.3025   0.0509
  161   44   1       0.2851   0.1178
  161   46   1       0.2884   0.0429
  161   48   1       0.1859   0.0218
  161   50   1       0.1859   0.0218
  161   52   1       0.2650   0.0218
  161   54   1       0.2560   0.0218
  161   56   1       0.2471   0.0218
  161   58   1       0.2382   0.0218
  161   60   1       0.2625   0.0213
  161   62   1       0.2580   0.0213
  161   64   1       0.2535   0.0213
  161   66   1       0.1325   0.0000
  161   68   1       0.1859   0.0218
  161   70   1       0.1325   0.0000
  161   72   1       0.2305   0.0218
  161   74   1       0.3418   0.1099
  161   76   1       0.3525   0.0549
  161   78   1       0.2989   0.0091
  161   80   1       0.5779   0.0549
  161   82   1       0.2031   0.1643
  161   84   1       0.2950   0.0716
  161   86   1       0.2950   0.0716
  161   88   1       0.2950   0.0716
  161   90   1       0.2950   0.0716
  161   92   1       0.2950   0.0716
  161   94   1       0.2950   0.0716
  161   96   1       0.2950   0.0716
  161   98   1       0.2805   0.0796
  161  100   1       0.2805   0.0796
  161  102   1       0.2900   0.0677
  161  104   1       0.2858   0.0797
  161  106   1       0.2858   0.0797
  161  108   1       0.2825   0.0716
  161  110   1       0.2805   0.0796
  161  112   1       0.3196   0.0777
  161  114   1       0.3107   0.0868
  161  116   1       0.3107   0.0868
  161  118   1       0.3025   0.0509
  161  120   1       0.1325   0.0000
  161  122   1       0.3693   0.0031
  161  124   1       0.3958   0.0023
  161  132   1       0.2338   0.0235
  161  134   1       0.2305   0.0194
  161  136   1       0.1325   0.0000
  161  138   1       0.2907   0.0701
  161  140   1       0.1325   0.0000
  161  142   1       0.2902   0.0684
  161  144   1       0.1325   0.0000
  161  146   1       0.2885   0.0695
  161  148   1       0.1325   0.0000
  161  150   1       0.2907   0.0849
  161  152   1       0.1325   0.0000
  161  154   1       0.1325   0.0000
  161  156   1       0.1325   0.0000
  161  158   1       0.3025   0.0574
  161  160   1       0.2650   0.0218
  161  162   1       0.3025   0.0509
  161  164   1       0.2805   0.0796
  161  166   1       0.2950   0.0716
  161  168   1       0.2560   0.0218
  161  170   1       0.3025   0.0509
  161  172   1       0.2625   0.0213
  161  176   1       0.2950   0.0716
  161  178   1       0.2305   0.0218
  161  180   1       0.2950   0.0716
  161  182   1       0.1859   0.0218
  163    0   1       0.1700   0.0000
  163    2   1       0.3400   0.1192
  163    4   1       0.3400   0.1192
  163    6   1       0.3400   0.1192
  163    8   1       0.3400   0.1192
  163   10   1       0.3400   0.1192
  163   12   1       0.3400   0.1192
  163   14   1       0.3400   0.1192
  163   16   1       0.3400   0.1192
  163   18   1       0.3400   0.1192
  163   20   1       0.3400   0.1192
  163   22   1       0.3400   0.1192
  163   24   1       0.3400   0.1345
  163   26   1       0.3400   0.1345
  163   28   1       0.3400   0.1345
  163   30   1       0.3400   0.1345
  163   32   1       0.3400   0.1345
  163   34   1       0.3400   0.1345
  163   36   1       0.3400   0.1345
  163   38   1       0.3400   0.1192
  163   40   1       0.3400   0.1192
  163   42   1       0.3400   0.1192
  163   44   1       0.3226   0.2756
  163   46   1       0.3259   0.1004
  163   48   1       0.2234   0.0509
  163   50   1       0.2234   0.0509
  163   52   1       0.3025   0.0509
  163   54   1       0.2936   0.0509
  163   56   1       0.2846   0.0509
  163   58   1       0.2757   0.0509
  163   60   1       0.3000   0.0498
  163   62   1       0.2955   0.0498
  163   64   1       0.2911   0.0498
  163   66   1       0.1700   0.0000
  163   68   1       0.2234   0.0509
  163   70   1       0.1700   0.0000
  163   72   1       0.2680   0.0509
  163   74   1       0.3793   0.2571
  163   76   1       0.3900   0.1286
  163   78   1       0.3364   0.0214
  163   80   1       0.6154   0.1286
  163   82   1       0.2406   0.3845
  163   84   1       0.3325   0.1676
  163   86   1       0.3325   0.1676
  163   88   1       0.3325   0.1676
  163   90   1       0.3325   0.1676
  163   92   1       0.3325   0.1676
  163   94   1       0.3325   0.1676
  163   96   1       0.3325   0.1676
  163   98   1       0.3180   0.1863
  163  100   1       0.3180   0.1863
  163  102   1       0.3275   0.1585
  163  104   1       0.3233   0.1865
  163  106   1       0.3233   0.1865
  163  108   1       0.3200   0.1676
  163  110   1       0.3180   0.1863
  163  112   1       0.3571   0.1818
  163  114   1       0.3482   0.2033
  163  116   1       0.3482   0.2033
  163  118   1       0.3400   0.1192
  163  120   1       0.1700   0.0000
  163  122   1       0.4068   0.0074
  163  124   1       0.4333   0.0053
  163  132   1       0.2713   0.0550
  163  134   1       0.2680   0.0454
  163  136   1       0.1700   0.0000
  163  138   1       0.3282   0.1640
  163  140   1       0.1700   0.0000
  163  142   1       0.3277   0.1600
  163  144   1       0.1700   0.0000
  163  146   1       0.3260   0.1626
  163  148   1       0.1700   0.0000
  163  150   1       0.3282   0.1986
  163  152   1       0.1700   0.0000
  163  154   1       0.1700   0.0000
  163  156   1       0.1700   0.0000
  163  158   1       0.3400   0.1345
  163  160   1       0.3025   0.0509
  163  162   1       0.3400   0.1192
  163  164   1       0.3180   0.1863
  163  166   1       0.3325   0.1676
  163  168   1       0.2936   0.0509
  163  170   1       0.3400   0.1192
  163  172   1       0.3000   0.0498
  163  176   1       0.3325   0.1676
  163  178   1       0.2680   0.0509
  163  180   1       0.3325   0.1676
  163  182   1       0.2234   0.0509
  165    0   1       0.1480   0.0000
  165    2   1       0.3180   0.1863
  165    4   1       0.3180   0.1863
  165    6   1       0.3180   0.1863
  165    8   1       0.3180   0.1863
  165   10   1       0.3180   0.1863
  165   12   1       0.3180   0.1863
  165   14   1       0.3180   0.1863
  165   16   1       0.3180   0.1863
  165   18   1       0.3180   0.1863
  165   20   1       0.3180   0.1863
  165   22   1       0.3180   0.1863
  165   24   1       0.3180   0.2101
  165   26   1       0.3180   0.2101
  165   28   1       0.3180   0.2101
  165   30   1       0.3180   0.2101
  165   32   1       0.3180   0.2101
  165   34   1       0.3180   0.2101
  165   36   1       0.3180   0.2101
  165   38   1       0.3180   0.1863
  165   40   1       0.3180   0.1863
  165   42   1       0.3180   0.1863
  165   44   1       0.3006   0.4307
  165   46   1       0.3039   0.1569
  165   48   1       0.2014   0.0796
  165   50   1       0.2014   0.0796
  165   52   1       0.2805   0.0796
  165   54   1       0.2716   0.0796
  165   56   1       0.2627   0.0796
  165   58   1       0.2537   0.0796
  165   60   1       0.2780   0.0778
  165   62   1       0.2735   0.0778
  165   64   1       0.2691   0.0778
  165   66   1       0.1480   0.0000
  165   68   1       0.2014   0.0796
  165   70   1       0.1480   0.0000
  165   72   1       0.2460   0.0796
  165   74   1       0.3574   0.4018
  165   76   1       0.3680   0.2009
  165   78   1       0.3144   0.0334
  165   80   1       0.5934   0.2009
  165   82   1       0.2186   0.6009
  165   84   1       0.3105   0.2619
  165   86   1       0.3105   0.2619
  165   88   1       0.3105   0.2619
  165   90   1       0.3105   0.2619
  165   92   1       0.3105   0.2619
  165   94   1       0.3105   0.2619
  165   96   1       0.3105   0.2619
  165   98   1       0.2960   0.2911
  165  100   1       0.2960   0.2911
  165  102   1       0.3055   0.2477
  165  104   1       0.3013   0.2914
  165  106   1       0.3013   0.2914
  165  108   1       0.2980   0.2619
  165  110   1       0.2960   0.2911
  165  112   1       0.3351   0.2841
  165  114   1       0.3262   0.3176
  165  116   1       0.3262   0.3176
  165  118   1       0.3180   0.1863
  165  120   1       0.1480   0.0000
  165  122   1       0.3848   0.0115
  165  124   1       0.4113   0.0083
  165  132   1       0.2493   0.0859
  165  134   1       0.2460   0.0710
  165  136   1       0.1480   0.0000
  165  138   1       0.3062   0.2563
  165  140   1       0.1480   0.0000
  165  142   1       0.3057   0.2501
  165  144   1       0.1480   0.0000
  165  146   1       0.3040   0.2541
  165  148   1       0.1480   0.0000
  165  150   1       0.3062   0.3104
  165  152   1       0.1480   0.0000
  165  154   1       0.1480   0.0000
  165  156   1       0.1480   0.0000
  165  158   1       0.3180   0.2101
  165  160   1       0.2805   0.0796
  165  162   1       0.3180   0.1863
  165  164   1       0.2960   0.2911
  165  166   1       0.3105   0.2619
  165  168   1       0.2716   0.0796
  165  170   1       0.3180   0.1863
  165  172   1       0.2780   0.0778
  165  176   1       0.3105   0.2619
  165  178   1       0.2460   0.0796
  165  180   1       0.3105   0.2619
  165  182   1       0.2014   0.0796
  167    0   1       0.1625   0.0000
  167    2   1       0.3325   0.1676
  167    4   1       0.3325   0.1676
  167    6   1       0.3325   0.1676
  167    8   1       0.3325   0.1676
  167   10   1       0.3325   0.1676
  167   12   1       0.3325   0.1676
  167   14   1       0.3325   0.1676
  167   16   1       0.3325   0.1676
  167   18   1       0.3325   0.1676
  167   20   1       0.3325   0.1676
  167   22   1       0.3325   0.1676
  167   24   1       0.3325   0.1890
  167   26   1       0.3325   0.1890
  167   28   1       0.3325   0.1890
  167   30   1       0.3325   0.1890
  167   32   1       0.3325   0.1890
  167   34   1       0.3325   0.1890
  167   36   1       0.3325   0.1890
  167   38   1       0.3325   0.1676
  167   40   1       0.3325   0.1676
  167   42   1       0.3325   0.1676
  167   44   1       0.3151   0.3876
  167   46   1       0.3184   0.1412
  167   48   1       0.2160   0.0716
  167   50   1       0.2160   0.0716
  167   52   1       0.2950   0.0716
  167   54   1       0.2861   0.0716
  167   56   1       0.2772   0.0716
  167   58   1       0.2682   0.0716
  167   60   1       0.2925   0.0700
  167   62   1       0.2880   0.0700
  167   64   1       0.2836   0.0700
  167   66   1       0.1625   0.0000
  167   68   1       0.2160   0.0716
  167   70   1       0.1625   0.0000
  167   72   1       0.2605   0.0716
  167   74   1       0.3719   0.3615
  167   76   1       0.3826   0.1807
  167   78   1       0.3289   0.0301
  167   80   1       0.6079   0.1807
  167   82   1       0.2331   0.5406
  167   84   1       0.3250   0.2357
  167   86   1       0.3250   0.2357
  167   88   1       0.3250   0.2357
  167   90   1       0.3250   0.2357
  167   92   1       0.3250   0.2357
  167   94   1       0.3250   0.2357
  167   96   1       0.3250   0.2357
  167   98   1       0.3105   0.2619
  167  100   1       0.3105   0.2619
  167  102   1       0.3200   0.2229
  167  104   1       0.3158   0.2622
  167  106   1       0.3158   0.2622
  167  108   1       0.3125   0.2357
  167  110   1       0.3105   0.2619
  167  112   1       0.3496   0.2556
  167  114   1       0.3407   0.2858
  167  116   1       0.3407   0.2858
  167  118   1       0.3325   0.1676
  167  120   1       0.1625   0.0000
  167  122   1       0.3993   0.0104
  167  124   1       0.4258   0.0075
  167  132   1       0.2638   0.0773
  167  134   1       0.2605   0.0639
  167  136   1       0.1625   0.0000
  167  138   1       0.3207   0.2306
  167  140   1       0.1625   0.0000
  167  142   1       0.3202   0.2250
  167  144   1       0.1625   0.0000
  167  146   1       0.3185   0.2286
  167  148   1       0.1625   0.0000
  167  150   1       0.3207   0.2793
  167  152   1       0.1625   0.0000
  167  154   1       0.1625   0.0000
  167  156   1       0.1625   0.0000
  167  158   1       0.3325   0.1890
  167  160   1       0.2950   0.0716
  167  162   1       0.3325   0.1676
  167  164   1       0.3105   0.2619
  167  166   1       0.3250   0.2357
  167  168   1       0.2861   0.0716
  167  170   1       0.3325   0.1676
  167  172   1       0.2925   0.0700
  167  176   1       0.3250   0.2357
  167  178   1       0.2605   0.0716
  167  180   1       0.3250   0.2357
  167  182   1       0.2160   0.0716
  169    0   1       0.1236   0.0000
  169    2   1       0.2936   0.0509
  169    4   1       0.2936   0.0509
  169    6   1       0.2936   0.0509
  169    8   1       0.2936   0.0509
  169   10   1       0.2936   0.0509
  169   12   1       0.2936   0.0509
  169   14   1       0.2936   0.0509
  169   16   1       0.2936   0.0509
  169   18   1       0.2936   0.0509
  169   20   1       0.2936   0.0509
  169   22   1       0.2936   0.0509
  169   24   1       0.2936   0.0574
  169   26   1       0.2936   0.0574
  169   28   1       0.2936   0.0574
  169   30   1       0.2936   0.0574
  169   32   1       0.2936   0.0574
  169   34   1       0.2936   0.0574
  169   36   1       0.2936   0.0574
  169   38   1       0.2936   0.0509
  169   40   1       0.2936   0.0509
  169   42   1       0.2936   0.0509
  169   44   1       0.2762   0.1178
  169   46   1       0.2795   0.0429
  169   48   1       0.1770   0.0218
  169   50   1       0.1770   0.0218
  169   52   1       0.2560   0.0218
  169   54   1       0.2471   0.0218
  169   56   1       0.2382   0.0218
  169   58   1       0.2293   0.0218
  169   60   1       0.2535   0.0213
  169   62   1       0.2491   0.0213
  169   64   1       0.2446   0.0213
  169   66   1       0.1236   0.0000
  169   68   1       0.1770   0.0218
  169   70   1       0.1236   0.0000
  169   72   1       0.2216   0.0218
  169   74   1       0.3329   0.1099
  169   76   1       0.3436   0.0549
  169   78   1       0.2900   0.0091
  169   80   1       0.5690   0.0549
  169   82   1       0.1942   0.1643
  169   84   1       0.2861   0.0716
  169   86   1       0.2861   0.0716
  169   88   1       0.2861   0.0716
  169   90   1       0.2861   0.0716
  169   92   1       0.2861   0.0716
  169   94   1       0.2861   0.0716
  169   96   1       0.2861   0.0716
  169   98   1       0.2716   0.0796
  169  100   1       0.2716   0.0796
  169  102   1       0.2811   0.0677
  169  104   1       0.2769   0.0797
  169  106   1       0.2769   0.0797
  169  108   1       0.2736   0.0716
  169  110   1       0.2716   0.0796
  169  112   1       0.3107   0.0777
  169  114   1       0.3017   0.0868
  169  116   1       0.3017   0.0868
  169  118   1       0.2936   0.0509
  169  120   1       0.1236   0.0000
  169  122   1       0.3604   0.0031
  169  124   1       0.3869   0.0023
  169  132   1       0.2249   0.0235
  169  134   1       0.2216   0.0194
  169  136   1       0.1236   0.0000
  169  138   1       0.2818   0.0701
  169  140   1       0.1236   0.0000
  169  142   1       0.2812   0.0684
  169  144   1       0.1236   0.0000
  169  146   1       0.2796   0.0695
  169  148   1       0.1236   0.0000
  169  150   1       0.2818   0.0849
  169  152   1       0.1236   0.0000
  169  154   1       0.1236   0.0000
  169  156   1       0.1236   0.0000
  169  158   1       0.2936   0.0574
  169  160   1       0.2560   0.0218
  169  162   1       0.2936   0.0509
  169  164   1       0.2716   0.0796
  169  166   1       0.2861   0.0716
  169  168   1       0.2471   0.0218
  169  170   1       0.2936   0.0509
  169  172   1       0.2535   0.0213
  169  176   1       0.2861   0.0716
  169  178   1       0.2216   0.0218
  169  180   1       0.2861   0.0716
  169  182   1       0.1770   0.0218
  171    0   1       0.1700   0.0000
  171    2   1       0.3400   0.1192
  171    4   1       0.3400   0.1192
  171    6   1       0.3400   0.1192
  171    8   1       0.3400   0.1192
  171   10   1       0.3400   0.1192
  171   12   1       0.3400   0.1192
  171   14   1       0.3400   0.1192
  171   16   1       0.3400   0.1192
  171   18   1       0.3400   0.1192
  171   20   1       0.3400   0.1192
  171   22   1       0.3400   0.1192
  171   24   1       0.3400   0.1345
  171   26   1       0.3400   0.1345
  171   28   1       0.3400   0.1345
  171   30   1       0.3400   0.1345
  171   32   1       0.3400   0.1345
  171   34   1       0.3400   0.1345
  171   36   1       0.3400   0.1345
  171   38   1       0.3400   0.1192
  171   40   1       0.3400   0.1192
  171   42   1       0.3400   0.1192
  171   44   1       0.3226   0.2756
  171   46   1       0.3259   0.1004
  171   48   1       0.2234   0.0509
  171   50   1       0.2234   0.0509
  171   52   1       0.3025   0.0509
  171   54   1       0.2936   0.0509
  171   56   1       0.2846   0.0509
  171   58   1       0.2757   0.0509
  171   60   1       0.3000   0.0498
  171   62   1       0.2955   0.0498
  171   64   1       0.2911   0.0498
  171   66   1       0.1700   0.0000
  171   68   1       0.2234   0.0509
  171   70   1       0.1700   0.0000
  171   72   1       0.2680   0.0509
  171   74   1       0.3793   0.2571
  171   76   1       0.3900   0.1286
  171   78   1       0.3364   0.0214
  171   80   1       0.6154   0.1286
  171   82   1       0.2406   0.3845
  171   84   1       0.3325   0.1676
  171   86   1       0.3325   0.1676
  171   88   1       0.3325   0.1676
  171   90   1       0.3325   0.1676
  171   92   1       0.3325   0.1676
  171   94   1       0.3325   0.1676
  171   96   1       0.3325   0.1676
  171   98   1       0.3180   0.1863
  171  100   1       0.3180   0.1863
  171  102   1       0.3275   0.1585
  171  104   1       0.3233   0.1865
  171  106   1       0.3233   0.1865
  171  108   1       0.3200   0.1676
  171  110   1       0.3180   0.1863
  171  112   1       0.3571   0.1818
  171  114   1       0.3482   0.2033
  171  116   1       0.3482   0.2033
  171  118   1       0.3400   0.1192
  171  120   1       0.1700   0.0000
  171  122   1       0.4068   0.0074
  171  124   1       0.4333   0.0053
  171  132   1       0.2713   0.0550
  171  134   1       0.2680   0.0454
  171  136   1       0.1700   0.0000
  171  138   1       0.3282   0.1640
  171  140   1       0.1700   0.0000
  171  142   1       0.3277   0.1600
  171  144   1       0.1700   0.0000
  171  146   1       0.3260   0.1626
  171  148   1       0.1700   0.0000
  171  150   1       0.3282   0.1986
  171  152   1       0.1700   0.0000
  171  154   1       0.1700   0.0000
  171  156   1       0.1700   0.0000
  171  158   1       0.3400   0.1345
  171  160   1       0.3025   0.0509
  171  162   1       0.3400   0.1192
  171  164   1       0.3180   0.1863
  171  166   1       0.3325   0.1676
  171  168   1       0.2936   0.0509
  171  170   1       0.3400   0.1192
  171  172   1       0.3000   0.0498
  171  176   1       0.3325   0.1676
  171  178   1       0.2680   0.0509
  171  180   1       0.3325   0.1676
  171  182   1       0.2234   0.0509
  173    0   1       0.1300   0.0000
  173    2   1       0.3000   0.0498
  173    4   1       0.3000   0.0498
  173    6   1       0.3000   0.0498
  173    8   1       0.3000   0.0498
  173   10   1       0.3000   0.0498
  173   12   1       0.3000   0.0498
  173   14   1       0.3000   0.0498
  173   16   1       0.3000   0.0498
  173   18   1       0.3000   0.0498
  173   20   1       0.3000   0.0498
  173   22   1       0.3000   0.0498
  173   24   1       0.3000   0.0562
  173   26   1       0.3000   0.0562
  173   28   1       0.3000   0.0562
  173   30   1       0.3000   0.0562
  173   32   1       0.3000   0.0562
  173   34   1       0.3000   0.0562
  173   36   1       0.3000   0.0562
  173   38   1       0.3000   0.0498
  173   40   1       0.3000   0.0498
  173   42   1       0.3000   0.0498
  173   44   1       0.2826   0.1151
  173   46   1       0.2859   0.0419
  173   48   1       0.1834   0.0213
  173   50   1       0.1834   0.0213
  173   52   1       0.2625   0.0213
  173   54   1       0.2535   0.0213
  173   56   1       0.2446   0.0213
  173   58   1       0.2357   0.0213
  173   60   1       0.2600   0.0208
  173   62   1       0.2555   0.0208
  173   64   1       0.2511   0.0208
  173   66   1       0.1300   0.0000
  173   68   1       0.1834   0.0213
  173   70   1       0.1300   0.0000
  173   72   1       0.2280   0.0213
  173   74   1       0.3393   0.1074
  173   76   1       0.3500   0.0537
  173   78   1       0.2964   0.0089
  173   80   1       0.5754   0.0537
  173   82   1       0.2006   0.1606
  173   84   1       0.2925   0.0700
  173   86   1       0.2925   0.0700
  173   88   1       0.2925   0.0700
  173   90   1       0.2925   0.0700
  173   92   1       0.2925   0.0700
  173   94   1       0.2925   0.0700
  173   96   1       0.2925   0.0700
  173   98   1       0.2780   0.0778
  173  100   1       0.2780   0.0778
  173  102   1       0.2875   0.0662
  173  104   1       0.2833   0.0779
  173  106   1       0.2833   0.0779
  173  108   1       0.2800   0.0700
  173  110   1       0.2780   0.0778
  173  112   1       0.3171   0.0759
  173  114   1       0.3082   0.0849
  173  116   1       0.3082   0.0849
  173  118   1       0.3000   0.0498
  173  120   1       0.1300   0.0000
  173  122   1       0.3668   0.0031
  173  124   1       0.3933   0.0022
  173  132   1       0.2313   0.0230
  173  134   1       0.2280   0.0190
  173  136   1       0.1300   0.0000
  173  138   1       0.2882   0.0685
  173  140   1       0.1300   0.0000
  173  142   1       0.2877   0.0668
  173  144   1       0.1300   0.0000
  173  146   1       0.2860   0.0679
  173  148   1       0.1300   0.0000
  173  150   1       0.2882   0.0830
  173  152   1       0.1300   0.0000
  173  154   1       0.1300   0.0000
  173  156   1       0.1300   0.0000
  173  158   1       0.3000   0.0562
  173  160   1       0.2625   0.0213
  173  162   1       0.3000   0.0498
  173  164   1       0.2780   0.0778
  173  166   1       0.2925   0.0700
  173  168   1       0.2535   0.0213
  173  170   1       0.3000   0.0498
  173  172   1       0.2600   0.0208
  173  176   1       0.2925   0.0700
  173  178   1       0.2280   0.0213
  173  180   1       0.2925   0.0700
  173  182   1       0.1834   0.0213
  174    0   1       0.1782   0.0000
  174    2   1       0.3482   0.5175
  174    4   1       0.3482   0.5175
  174    6   1       0.3482   0.5175
  174    8   1       0.3482   0.5175
  174   10   1       0.3482   0.5175
  174   12   1       0.3482   0.5175
  174   14   1       0.3482   0.5175
  174   16   1       0.3482   0.5175
  174   18   1       0.3482   0.5175
  174   20   1       0.3482   0.5175
  174   22   1       0.3482   0.5175
  174   24   1       0.3482   0.5837
  174   26   1       0.3482   0.5837
  174   28   1       0.3482   0.5837
  174   30   1       0.3482   0.5837
  174   32   1       0.3482   0.5837
  174   34   1       0.3482   0.5837
  174   36   1       0.3482   0.5837
  174   38   1       0.3482   0.5175
  174   40   1       0.3482   0.5175
  174   42   1       0.3482   0.5175
  174   44   1       0.3308   1.1966
  174   46   1       0.3341   0.4359
  174   48   1       0.2316   0.2211
  174   50   1       0.2316   0.2211
  174   52   1       0.3107   0.2211
  174   54   1       0.3017   0.2211
  174   56   1       0.2928   0.2211
  174   58   1       0.2839   0.2211
  174   60   1       0.3082   0.2161
  174   62   1       0.3037   0.2161
  174   64   1       0.2993   0.2161
  174   66   1       0.1782   0.0000
  174   68   1       0.2316   0.2211
  174   70   1       0.1782   0.0000
  174   72   1       0.2762   0.2211
  174   74   1       0.3875   1.1161
  174   76   1       0.3982   0.5580
  174   78   1       0.3446   0.0929
  174   80   1       0.6236   0.5580
  174   82   1       0.2488   1.6692
  174   84   1       0.3407   0.7276
  174   86   1       0.3407   0.7276
  174   88   1       0.3407   0.7276
  174   90   1       0.3407   0.7276
  174   92   1       0.3407   0.7276
  174   94   1       0.3407   0.7276
  174   96   1       0.3407   0.7276
  174   98   1       0.3262   0.8087
  174  100   1       0.3262   0.8087
  174  102   1       0.3357   0.6882
  174  104   1       0.3315   0.8095
  174  106   1       0.3315   0.8095
  174  108   1       0.3282   0.7276
  174  110   1       0.3262   0.8087
  174  112   1       0.3653   0.7892
  174  114   1       0.3564   0.8824
  174  116   1       0.3564   0.8824
  174  118   1       0.3482   0.5175
  174  120   1       0.1782   0.0000
  174  122   1       0.4150   0.0320
  174  124   1       0.4415   0.0230
  174  132   1       0.2795   0.2387
  174  134   1       0.2762   0.1973
  174  136   1       0.1782   0.0000
  174  138   1       0.3364   0.7119
  174  140   1       0.1782   0.0000
  174  142   1       0.3359   0.6948
  174  144   1       0.1782   0.0000
  174  146   1       0.3342   0.7059
  174  148   1       0.1782   0.0000
  174  150   1       0.3364   0.8623
  174  152   1       0.1782   0.0000
  174  154   1       0.1782   0.0000
  174  156   1       0.1782   0.0000
  174  158   1       0.3482   0.5837
  174  160   1       0.3107   0.2211
  174  162   1       0.3482   0.5175
  174  164   1       0.3262   0.8087
  174  166   1       0.3407   0.7276
  174  168   1       0.3017   0.2211
  174  170   1       0.3482   0.5175
  174  172   1       0.3082   0.2161
  174  176   1       0.3407   0.7276
  174  178   1       0.2762   0.2211
  174  180   1       0.3407   0.7276
  174  182   1       0.2316   0.2211
  175    0   1       0.1782   0.0000
  175    2   1       0.3482   0.2033
  175    4   1       0.3482   0.2033
  175    6   1       0.3482   0.2033
  175    8   1       0.3482   0.2033
  175   10   1       0.3482   0.2033
  175   12   1       0.3482   0.2033
  175   14   1       0.3482   0.2033
  175   16   1       0.3482   0.2033
  175   18   1       0.3482   0.2033
  175   20   1       0.3482   0.2033
  175   22   1       0.3482   0.2033
  175   24   1       0.3482   0.2292
  175   26   1       0.3482   0.2292
  175   28   1       0.3482   0.2292
  175   30   1       0.3482   0.2292
  175   32   1       0.3482   0.2292
  175   34   1       0.3482   0.2292
  175   36   1       0.3482   0.2292
  175   38   1       0.3482   0.2033
  175   40   1       0.3482   0.2033
  175   42   1       0.3482   0.2033
  175   44   1       0.3308   0.4700
  175   46   1       0.3341   0.1712
  175   48   1       0.2316   0.0868
  175   50   1       0.2316   0.0868
  175   52   1       0.3107   0.0868
  175   54   1       0.3017   0.0868
  175   56   1       0.2928   0.0868
  175   58   1       0.2839   0.0868
  175   60   1       0.3082   0.0849
  175   62   1       0.3037   0.0849
  175   64   1       0.2993   0.0849
  175   66   1       0.1782   0.0000
  175   68   1       0.2316   0.0868
  175   70   1       0.1782   0.0000
  175   72   1       0.2762   0.0868
  175   74   1       0.3875   0.4384
  175   76   1       0.3982   0.2192
  175   78   1       0.3446   0.0365
  175   80   1       0.6236   0.2192
  175   82   1       0.2488   0.6556
  175   84   1       0.3407   0.2858
  175   86   1       0.3407   0.2858
  175   88   1       0.3407   0.2858
  175   90   1       0.3407   0.2858
  175   92   1       0.3407   0.2858
  175   94   1       0.3407   0.2858
  175   96   1       0.3407   0.2858
  175   98   1       0.3262   0.3176
  175  100   1       0.3262   0.3176
  175  102   1       0.3357   0.2703
  175  104   1       0.3315   0.3179
  175  106   1       0.3315   0.3179
  175  108   1       0.3282   0.2858
  175  110   1       0.3262   0.3176
  175  112   1       0.3653   0.3100
  175  114   1       0.3564   0.3466
  175  116   1       0.3564   0.3466
  175  118   1       0.3482   0.2033
  175  120   1       0.1782   0.0000
  175  122   1       0.4150   0.0126
  175  124   1       0.4415   0.0090
  175  132   1       0.2795   0.0938
  175  134   1       0.2762   0.0775
  175  136   1       0.1782   0.0000
  175  138   1       0.3364   0.2796
  175  140   1       0.1782   0.0000
  175  142   1       0.3359   0.2729
  175  144   1       0.1782   0.0000
  175  146   1       0.3342   0.2772
  175  148   1       0.1782   0.0000
  175  150   1       0.3364   0.3387
  175  152   1       0.1782   0.0000
  175  154   1       0.1782   0.0000
  175  156   1       0.1782   0.0000
  175  158   1       0.3482   0.2292
  175  160   1       0.3107   0.0868
  175  162   1       0.3482   0.2033
  175  164   1       0.3262   0.3176
  175  166   1       0.3407   0.2858
  175  168   1       0.3017   0.0868
  175  170   1       0.3482   0.2033
  175  172   1       0.3082   0.0849
  175  176   1       0.3407   0.2858
  175  178   1       0.2762   0.0868
  175  180   1       0.3407   0.2858
  175  182   1       0.2316   0.0868
  177    0   1       0.1625   0.0000
  177    2   1       0.3325   0.1676
  177    4   1       0.3325   0.1676
  177    6   1       0.3325   0.1676
  177    8   1       0.3325   0.1676
  177   10   1       0.3325   0.1676
  177   12   1       0.3325   0.1676
  177   14   1       0.3325   0.1676
  177   16   1       0.3325   0.1676
  177   18   1       0.3325   0.1676
  177   20   1       0.3325   0.1676
  177   22   1       0.3325   0.1676
  177   24   1       0.3325   0.1890
  177   26   1       0.3325   0.1890
  177   28   1       0.3325   0.1890
  177   30   1       0.3325   0.1890
  177   32   1       0.3325   0.1890
  177   34   1       0.3325   0.1890
  177   36   1       0.3325   0.1890
  177   38   1       0.3325   0.1676
  177   40   1       0.3325   0.1676
  177   42   1       0.3325   0.1676
  177   44   1       0.3151   0.3876
  177   46   1       0.3184   0.1412
  177   48   1       0.2160   0.0716
  177   50   1       0.2160   0.0716
  177   52   1       0.2950   0.0716
  177   54   1       0.2861   0.0716
  177   56   1       0.2772   0.0716
  177   58   1       0.2682   0.0716
  177   60   1       0.2925   0.0700
  177   62   1       0.2880   0.0700
  177   64   1       0.2836   0.0700
  177   66   1       0.1625   0.0000
  177   68   1       0.2160   0.0716
  177   70   1       0.1625   0.0000
  177   72   1       0.2605   0.0716
  177   74   1       0.3719   0.3615
  177   76   1       0.3826   0.1807
  177   78   1       0.3289   0.0301
  177   80   1       0.6079   0.1807
  177   82   1       0.2331   0.5406
  177   84   1       0.3250   0.2357
  177   86   1       0.3250   0.2357
  177   88   1       0.3250   0.2357
  177   90   1       0.3250   0.2357
  177   92   1       0.3250   0.2357
  177   94   1       0.3250   0.2357
  177   96   1       0.3250   0.2357
  177   98   1       0.3105   0.2619
  177  100   1       0.3105   0.2619
  177  102   1       0.3200   0.2229
  177  104   1       0.3158   0.2622
  177  106   1       0.3158   0.2622
  177  108   1       0.3125   0.2357
  177  110   1       0.3105   0.2619
  177  112   1       0.3496   0.2556
  177  114   1       0.3407   0.2858
  177  116   1       0.3407   0.2858
  177  118   1       0.3325   0.1676
  177  120   1       0.1625   0.0000
  177  122   1       0.3993   0.0104
  177  124   1       0.4258   0.0075
  177  132   1       0.2638   0.0773
  177  134   1       0.2605   0.0639
  177  136   1       0.1625   0.0000
  177  138   1       0.3207   0.2306
  177  140   1       0.1625   0.0000
  177  142   1       0.3202   0.2250
  177  144   1       0.1625   0.0000
  177  146   1       0.3185   0.2286
  177  148   1       0.1625   0.0000
  177  150   1       0.3207   0.2793
  177  152   1       0.1625   0.0000
  177  154   1       0.1625   0.0000
  177  156   1       0.1625   0.0000
  177  158   1       0.3325   0.1890
  177  160   1       0.2950   0.0716
  177  162   1       0.3325   0.1676
  177  164   1       0.3105   0.2619
  177  166   1       0.3250   0.2357
  177  168   1       0.2861   0.0716
  177  170   1       0.3325   0.1676
  177  172   1       0.2925   0.0700
  177  176   1       0.3250   0.2357
  177  178   1       0.2605   0.0716
  177  180   1       0.3250   0.2357
  177  182   1       0.2160   0.0716
  179    0   1       0.0980   0.0000
  179    2   1       0.2680   0.0509
  179    4   1       0.2680   0.0509
  179    6   1       0.2680   0.0509
  179    8   1       0.2680   0.0509
  179   10   1       0.2680   0.0509
  179   12   1       0.2680   0.0509
  179   14   1       0.2680   0.0509
  179   16   1       0.2680   0.0509
  179   18   1       0.2680   0.0509
  179   20   1       0.2680   0.0509
  179   22   1       0.2680   0.0509
  179   24   1       0.2680   0.0574
  179   26   1       0.2680   0.0574
  179   28   1       0.2680   0.0574
  179   30   1       0.2680   0.0574
  179   32   1       0.2680   0.0574
  179   34   1       0.2680   0.0574
  179   36   1       0.2680   0.0574
  179   38   1       0.2680   0.0509
  179   40   1       0.2680   0.0509
  179   42   1       0.2680   0.0509
  179   44   1       0.2506   0.1178
  179   46   1       0.2539   0.0429
  179   48   1       0.1515   0.0218
  179   50   1       0.1515   0.0218
  179   52   1       0.2305   0.0218
  179   54   1       0.2216   0.0218
  179   56   1       0.2127   0.0218
  179   58   1       0.2037   0.0218
  179   60   1       0.2280   0.0213
  179   62   1       0.2235   0.0213
  179   64   1       0.2191   0.0213
  179   66   1       0.0980   0.0000
  179   68   1       0.1515   0.0218
  179   70   1       0.0980   0.0000
  179   72   1       0.1960   0.0218
  179   74   1       0.3074   0.1099
  179   76   1       0.3181   0.0549
  179   78   1       0.2644   0.0091
  179   80   1       0.5434   0.0549
  179   82   1       0.1686   0.1643
  179   84   1       0.2605   0.0716
  179   86   1       0.2605   0.0716
  179   88   1       0.2605   0.0716
  179   90   1       0.2605   0.0716
  179   92   1       0.2605   0.0716
  179   94   1       0.2605   0.0716
  179   96   1       0.2605   0.0716
  179   98   1       0.2460   0.0796
  179  100   1       0.2460   0.0796
  179  102   1       0.2555   0.0677
  179  104   1       0.2513   0.0797
  179  106   1       0.2513   0.0797
  179  108   1       0.2480   0.0716
  179  110   1       0.2460   0.0796
  179  112   1       0.2851   0.0777
  179  114   1       0.2762   0.0868
  179  116   1       0.2762   0.0868
  179  118   1       0.2680   0.0509
  179  120   1       0.0980   0.0000
  179  122   1       0.3348   0.0031
  179  124   1       0.3613   0.0023
  179  132   1       0.1993   0.0235
  179  134   1       0.1960   0.0194
  179  136   1       0.0980   0.0000
  179  138   1       0.2562   0.0701
  179  140   1       0.0980   0.0000
  179  142   1       0.2557   0.0684
  179  144   1       0.0980   0.0000
  179  146   1       0.2540   0.0695
  179  148   1       0.0980   0.0000
  179  150   1       0.2562   0.0849
  179  152   1       0.0980   0.0000
  179  154   1       0.0980   0.0000
  179  156   1       0.0980   0.0000
  179  158   1       0.2680   0.0574
  179  160   1       0.2305   0.0218
  179  162   1       0.2680   0.0509
  179  164   1       0.2460   0.0796
  179  166   1       0.2605   0.0716
  179  168   1       0.2216   0.0218
  179  170   1       0.2680   0.0509
  179  172   1       0.2280   0.0213
  179  176   1       0.2605   0.0716
  179  178   1       0.1960   0.0218
  179  180   1       0.2605   0.0716
  179  182   1       0.1515   0.0218
  181    0   1       0.1625   0.0000
  181    2   1       0.3325   0.1676
  181    4   1       0.3325   0.1676
  181    6   1       0.3325   0.1676
  181    8   1       0.3325   0.1676
  181   10   1       0.3325   0.1676
  181   12   1       0.3325   0.1676
  181   14   1       0.3325   0.1676
  181   16   1       0.3325   0.1676
  181   18   1       0.3325   0.1676
  181   20   1       0.3325   0.1676
  181   22   1       0.3325   0.1676
  181   24   1       0.3325   0.1890
  181   26   1       0.3325   0.1890
  181   28   1       0.3325   0.1890
  181   30   1       0.3325   0.1890
  181   32   1       0.3325   0.1890
  181   34   1       0.3325   0.1890
  181   36   1       0.3325   0.1890
  181   38   1       0.3325   0.1676
  181   40   1       0.3325   0.1676
  181   42   1       0.3325   0.1676
  181   44   1       0.3151   0.3876
  181   46   1       0.3184   0.1412
  181   48   1       0.2160   0.0716
  181   50   1       0.2160   0.0716
  181   52   1       0.2950   0.0716
  181   54   1       0.2861   0.0716
  181   56   1       0.2772   0.0716
  181   58   1       0.2682   0.0716
  181   60   1       0.2925   0.0700
  181   62   1       0.2880   0.0700
  181   64   1       0.2836   0.0700
  181   66   1       0.1625   0.0000
  181   68   1       0.2160   0.0716
  181   70   1       0.1625   0.0000
  181   72   1       0.2605   0.0716
  181   74   1       0.3719   0.3615
  181   76   1       0.3826   0.1807
  181   78   1       0.3289   0.0301
  181   80   1       0.6079   0.1807
  181   82   1       0.2331   0.5406
  181   84   1       0.3250   0.2357
  181   86   1       0.3250   0.2357
  181   88   1       0.3250   0.2357
  181   90   1       0.3250   0.2357
  181   92   1       0.3250   0.2357
  181   94   1       0.3250   0.2357
  181   96   1       0.3250   0.2357
  181   98   1       0.3105   0.2619
  181  100   1       0.3105   0.2619
  181  102   1       0.3200   0.2229
  181  104   1       0.3158   0.2622
  181  106   1       0.3158   0.2622
  181  108   1       0.3125   0.2357
  181  110   1       0.3105   0.2619
  181  112   1       0.3496   0.2556
  181  114   1       0.3407   0.2858
  181  116   1       0.3407   0.2858
  181  118   1       0.3325   0.1676
  181  120   1       0.1625   0.0000
  181  122   1       0.3993   0.0104
  181  124   1       0.4258   0.0075
  181  132   1       0.2638   0.0773
  181  134   1       0.2605   0.0639
  181  136   1       0.1625   0.0000
  181  138   1       0.3207   0.2306
  181  140   1       0.1625   0.0000
  181  142   1       0.3202   0.2250
  181  144   1       0.1625   0.0000
  181  146   1       0.3185   0.2286
  181  148   1       0.1625   0.0000
  181  150   1       0.3207   0.2793
  181  152   1       0.1625   0.0000
  181  154   1       0.1625   0.0000
  181  156   1       0.1625   0.0000
  181  158   1       0.3325   0.1890
  181  160   1       0.2950   0.0716
  181  162   1       0.3325   0.1676
  181  164   1       0.3105   0.2619
  181  166   1       0.3250   0.2357
  181  168   1       0.2861   0.0716
  181  170   1       0.3325   0.1676
  181  172   1       0.2925   0.0700
  181  176   1       0.3250   0.2357
  181  178   1       0.2605   0.0716
  181  180   1       0.3250   0.2357
  181  182   1       0.2160   0.0716
  183    0   1       0.0535   0.0000
  183    2   1       0.2234   0.0509
  183    4   1       0.2234   0.0509
  183    6   1       0.2234   0.0509
  183    8   1       0.2234   0.0509
  183   10   1       0.2234   0.0509
  183   12   1       0.2234   0.0509
  183   14   1       0.2234   0.0509
  183   16   1       0.2234   0.0509
  183   18   1       0.2234   0.0509
  183   20   1       0.2234   0.0509
  183   22   1       0.2234   0.0509
  183   24   1       0.2234   0.0574
  183   26   1       0.2234   0.0574
  183   28   1       0.2234   0.0574
  183   30   1       0.2234   0.0574
  183   32   1       0.2234   0.0574
  183   34   1       0.2234   0.0574
  183   36   1       0.2234   0.0574
  183   38   1       0.2234   0.0509
  183   40   1       0.2234   0.0509
  183   42   1       0.2234   0.0509
  183   44   1       0.2061   0.1178
  183   46   1       0.2094   0.0429
  183   48   1       0.1069   0.0218
  183   50   1       0.1069   0.0218
  183   52   1       0.1859   0.0218
  183   54   1       0.1770   0.0218
  183   56   1       0.1681   0.0218
  183   58   1       0.1592   0.0218
  183   60   1       0.1834   0.0213
  183   62   1       0.1790   0.0213
  183   64   1       0.1745   0.0213
  183   66   1       0.0535   0.0000
  183   68   1       0.1069   0.0218
  183   70   1       0.0535   0.0000
  183   72   1       0.1515   0.0218
  183   74   1       0.2628   0.1099
  183   76   1       0.2735   0.0549
  183   78   1       0.2199   0.0091
  183   80   1       0.4989   0.0549
  183   82   1       0.1241   0.1643
  183   84   1       0.2160   0.0716
  183   86   1       0.2160   0.0716
  183   88   1       0.2160   0.0716
  183   90   1       0.2160   0.0716
  183   92   1       0.2160   0.0716
  183   94   1       0.2160   0.0716
  183   96   1       0.2160   0.0716
  183   98   1       0.2014   0.0796
  183  100   1       0.2014   0.0796
  183  102   1       0.2110   0.0677
  183  104   1       0.2068   0.0797
  183  106   1       0.2068   0.0797
  183  108   1       0.2035   0.0716
  183  110   1       0.2014   0.0796
  183  112   1       0.2405   0.0777
  183  114   1       0.2316   0.0868
  183  116   1       0.2316   0.0868
  183  118   1       0.2234   0.0509
  183  120   1       0.0535   0.0000
  183  122   1       0.2903   0.0031
  183  124   1       0.3168   0.0023
  183  132   1       0.1547   0.0235
  183  134   1       0.1515   0.0194
  183  136   1       0.0535   0.0000
  183  138   1       0.2117   0.0701
  183  140   1       0.0535   0.0000
  183  142   1       0.2111   0.0684
  183  144   1       0.0535   0.0000
  183  146   1       0.2095   0.0695
  183  148   1       0.0535   0.0000
  183  150   1       0.2117   0.0849
  183  152   1       0.0535   0.0000
  183  154   1       0.0535   0.0000
  183  156   1       0.0535   0.0000
  183  158   1       0.2234   0.0574
  183  160   1       0.1859   0.0218
  183  162   1       0.2234   0.0509
  183  164   1       0.2014   0.0796
  183  166   1       0.2160   0.0716
  183  168   1       0.1770   0.0218
  183  170   1       0.2234   0.0509
  183  172   1       0.1834   0.0213
  183  176   1       0.2160   0.0716
  183  178   1       0.1515   0.0218
  183  180   1       0.2160   0.0716
  183  182   1       0.1069   0.0218

 [ bondtypes ] 
; i    j  func       b0          kb
 C   C1      1    0.15220  265265.6  ; Amber99Sb-disp
 C1  H1      1    0.10900  284512.0  ; Amber99Sb-disp
 C1  N       1    0.14490  282001.6  ; Amber99Sb-disp
 C1  N3      1    0.14710  307105.6  ; Amber99Sb-disp
 HO  O3      1    0.09600  462750.4  ; Amber99Sb-disp
 C8  O3      1    0.14100  267776.0  ; Amber99Sb-disp
 C8  OH      1    0.14100  267776.0  ; Amber99Sb-disp
 CT  C8      1    0.15260  259408.0  ; Amber99Sb-disp
 CT  C9      1    0.15260  259408.0  ; Amber99Sb-disp
 C9  HC      1    0.10900  284512.0  ; Amber99Sb-disp
 C9  H1      1    0.10900  284512.0  ; Amber99Sb-disp
 C9  S       1    0.18100  189953.6  ; Amber99Sb-disp
 C9  C       1    0.15220  265265.6  ; Amber99Sb-disp
 C8  H1      1    0.10900  284512.0  ; Amber99Sb-disp
 C8  HC      1    0.10900  284512.0  ; Amber99Sb-disp
 OW  HW      1    0.09572  462750.4  ; Amber99Sb-disp
 HW  HW      1    0.15136  462750.4  ; Amber99Sb-disp
 C   C       1    0.15250  259408.0  ; Amber99Sb-disp
 C   CA      1    0.14090  392459.2  ; Amber99Sb-disp
 C   CB      1    0.14190  374049.6  ; Amber99Sb-disp
 C   CM      1    0.14440  343088.0  ; Amber99Sb-disp
 C   CT      1    0.15220  265265.6  ; Amber99Sb-disp
 C   N       1    0.13350  410032.0  ; Amber99Sb-disp
 C   N*      1    0.13830  354803.2  ; Amber99Sb-disp
 C   NA      1    0.13880  349782.4  ; Amber99Sb-disp
 C   NC      1    0.13580  382417.6  ; Amber99Sb-disp
 C   O       1    0.12290  476976.0  ; Amber99Sb-disp
 C   OB      1    0.12290  476976.0  ; Amber99Sb-disp
 C   O2      1    0.12500  548940.8  ; Amber99Sb-disp
 C   OH      1    0.13640  376560.0  ; Amber99Sb-disp
 C   OS      1    0.13230  376560.0  ; Amber99Sb-disp
 C   H4      1    0.10800  307105.6  ; Amber99Sb-disp
 C   H5      1    0.10800  307105.6  ; Amber99Sb-disp
 CA  CA      1    0.14000  392459.2  ; Amber99Sb-disp
 CA  CB      1    0.14040  392459.2  ; Amber99Sb-disp
 CA  CM      1    0.14330  357313.6  ; Amber99Sb-disp
 CA  CN      1    0.14000  392459.2  ; Amber99Sb-disp
 CA  CT      1    0.15100  265265.6  ; Amber99Sb-disp
 CA  HA      1    0.10800  307105.6  ; Amber99Sb-disp
 CA  H4      1    0.10800  307105.6  ; Amber99Sb-disp
 CA  N2      1    0.13400  402500.8  ; Amber99Sb-disp
 CA  NA      1    0.13810  357313.6  ; Amber99Sb-disp
 CA  NC      1    0.13390  404174.4  ; Amber99Sb-disp
 CA  OH      1    0.13640  376560.0  ; Amber99Sb-disp
 CB  CB      1    0.13700  435136.0  ; Amber99Sb-disp
 CB  N*      1    0.13740  364844.8  ; Amber99Sb-disp
 CB  NB      1    0.13910  346435.2  ; Amber99Sb-disp
 CB  NC      1    0.13540  385764.8  ; Amber99Sb-disp
 CK  H5      1    0.10800  307105.6  ; Amber99Sb-disp
 CK  N*      1    0.13710  368192.0  ; Amber99Sb-disp
 CK  NB      1    0.13040  442667.2  ; Amber99Sb-disp
 CM  CM      1    0.13500  459403.2  ; Amber99Sb-disp
 CM  CT      1    0.15100  265265.6  ; Amber99Sb-disp
 CM  HA      1    0.10800  307105.6  ; Amber99Sb-disp
 CM  H4      1    0.10800  307105.6  ; Amber99Sb-disp
 CM  H5      1    0.10800  307105.6  ; Amber99Sb-disp
 CM  N*      1    0.13650  374886.4  ; Amber99Sb-disp
 CM  OS      1    0.12400  401664.0  ; Amber99Sb-disp
 CQ  H5      1    0.10800  307105.6  ; Amber99Sb-disp
 CQ  NC      1    0.13240  420073.6  ; Amber99Sb-disp
 CT  CT      1    0.15260  259408.0  ; Amber99Sb-disp
 CT  HC      1    0.10900  284512.0  ; Amber99Sb-disp
 CT  H1      1    0.10900  284512.0  ; Amber99Sb-disp
 CT  H2      1    0.10900  284512.0  ; Amber99Sb-disp
 CT  H3      1    0.10900  284512.0  ; Amber99Sb-disp
 CT  HP      1    0.10900  284512.0  ; Amber99Sb-disp
 CT  N*      1    0.14750  282001.6  ; Amber99Sb-disp
 CT  N2      1    0.14630  282001.6  ; Amber99Sb-disp
 CT  OH      1    0.14100  267776.0  ; Amber99Sb-disp
 CT  OS      1    0.14100  267776.0  ; Amber99Sb-disp
 C*  HC      1    0.10800  307105.6  ; Amber99Sb-disp
 C*  CB      1    0.14590  324678.4  ; Amber99Sb-disp
 C*  CT      1    0.14950  265265.6  ; Amber99Sb-disp
 C*  CW      1    0.13520  456892.8  ; Amber99Sb-disp
 CB  CN      1    0.14190  374049.6  ; Amber99Sb-disp
 CC  CT      1    0.15040  265265.6  ; Amber99Sb-disp
 CC  CV      1    0.13750  428441.6  ; Amber99Sb-disp
 CC  CW      1    0.13710  433462.4  ; Amber99Sb-disp
 CC  NA      1    0.13850  353129.6  ; Amber99Sb-disp
 CC  NB      1    0.13940  343088.0  ; Amber99Sb-disp
 CN  NA      1    0.13800  358150.4  ; Amber99Sb-disp
 CR  H5      1    0.10800  307105.6  ; Amber99Sb-disp
 CR  NA      1    0.13430  399153.6  ; Amber99Sb-disp
 CR  NB      1    0.13350  408358.4  ; Amber99Sb-disp
 CT  N       1    0.14490  282001.6  ; Amber99Sb-disp
 CT  N3      1    0.14710  307105.6  ; Amber99Sb-disp
 CT  S       1    0.18100  189953.6  ; Amber99Sb-disp
 CT  SH      1    0.18100  198321.6  ; Amber99Sb-disp
 CV  H4      1    0.10800  307105.6  ; Amber99Sb-disp
 CV  NB      1    0.13940  343088.0  ; Amber99Sb-disp
 CW  H4      1    0.10800  307105.6  ; Amber99Sb-disp
 CW  NA      1    0.13810  357313.6  ; Amber99Sb-disp
 O2  P       1    0.14800  439320.0  ; Amber99Sb-disp
 OH  P       1    0.16100  192464.0  ; Amber99Sb-disp
 OS  P       1    0.16100  192464.0  ; Amber99Sb-disp
 H   N2      1    0.10100  363171.2  ; Amber99Sb-disp
 H   N*      1    0.10100  363171.2  ; Amber99Sb-disp
 H   NA      1    0.10100  363171.2  ; Amber99Sb-disp
 H   N       1    0.10100  363171.2  ; Amber99Sb-disp
 HB  N       1    0.10100  363171.2  ; Amber99Sb-disp
 H   N3      1    0.10100  363171.2  ; Amber99Sb-disp
 HO  OH      1    0.09600  462750.4  ; Amber99Sb-disp
 HO  OS      1    0.09600  462750.4  ; Amber99Sb-disp
 HS  SH      1    0.13360  229283.2  ; Amber99Sb-disp
 S   S       1    0.20380  138908.8  ; Amber99Sb-disp
 F   CT      1    0.13800  307105.6  ; Amber99Sb-disp
 Cl  CT      1    0.17660  194137.6  ; Amber99Sb-disp
 Br  CT      1    0.19440  133051.2  ; Amber99Sb-disp
 I   CT      1    0.21660  123846.4  ; Amber99Sb-disp
 F   CA      1    0.13590  323004.8  ; Amber99Sb-disp
 Cl  CA      1    0.17270  161502.4  ; Amber99Sb-disp
 I   CA      1    0.20750  143092.8  ; Amber99Sb-disp
 Br  CA      1    0.18900  143929.6  ; Amber99Sb-disp
 C7  CT      1    0.15260  259408.0  ; Amber99Sb-disp
 C   C7      1    0.15220  265265.6  ; Amber99Sb-disp
 C7  H1      1    0.10900  284512.0  ; Amber99Sb-disp
 C7  HP      1    0.10900  284512.0  ; Amber99Sb-disp
 C7  N       1    0.14490  282001.6  ; Amber99Sb-disp
 C7  N3      1    0.14710  307105.6  ; Amber99Sb-disp
 C3  HC      1    0.10900  284512.0  ; Amber99Sb-disp
 C4  HC      1    0.10900  284512.0  ; Amber99Sb-disp
 CT  C3      1    0.15260  259408.0  ; Amber99Sb-disp
 CT  C4      1    0.15260  259408.0  ; Amber99Sb-disp
 C6  O2      1    0.12500  548940.8  ; Amber99Sb-disp
 CC  O2      1    0.12500  548940.8  ; Amber99Sb-disp
 C5  O       1    0.12290  476976.0  ; Amber99Sb-disp
 C5  N       1    0.13350  410032.0  ; Amber99Sb-disp
 C5  CT      1    0.15220  265265.6  ; Amber99Sb-disp
 C6  CT      1    0.15220  265265.6  ; Amber99Sb-disp
 C1  HP      1    0.10900  284512.0  ; Amber99Sb-disp

 [ constrainttypes ] 
; this section is implemented manually from bond * angle values
; constraints for rigid CH3 groups
 MCH3   CT      2    0.166426
 MCH3   S       2    0.193875
 MCH3   MCH3    2    0.092163
; constraints for rigid NH3 groups
 MNH3   CT      2    0.158254
 MNH3   MNH3    2    0.080229
; angle-derived constraints for OH and SH groups in proteins
; The constraint A-C is calculated from the angle A-B-C and bonds A-B, B-C.
  C     HO      2    0.195074
  CA    HO      2    0.195074
  CT    HO      2    0.194132
  CT    HS      2    0.235935

 [ angletypes ] 
;  i    j    k  func       th0       cth
 C1  C   OH     1    110.000  669.440  ; Amber99Sb-disp
 C1  C   O      1    120.400  669.440  ; Amber99Sb-disp
 C1  C   OB     1    120.400  669.440  ; Amber99Sb-disp
 C1  C   O2     1    117.000  585.760  ; Amber99Sb-disp
 C1  C   N      1    116.600  585.760  ; Amber99Sb-disp
 H1  C1  H1     1    109.500  292.880  ; Amber99Sb-disp
 H1  C1  N      1    109.500  418.400  ; Amber99Sb-disp
 H1  C1  N3     1    109.500  418.400  ; Amber99Sb-disp
 C   C1  H1     1    109.500  418.400  ; Amber99Sb-disp
 C   C1  N      1    110.100  527.184  ; Amber99Sb-disp
 C   C1  N3     1    111.200  669.440  ; Amber99Sb-disp
 C   N   C1     1    121.900  418.400  ; Amber99Sb-disp
 C1  N   H      1    118.040  418.400  ; Amber99Sb-disp
 C1  N   HB     1    118.040  418.400  ; Amber99Sb-disp
 C1  N3  H      1    109.500  418.400  ; Amber99Sb-disp
 H1  C8  H1     1    109.500  292.880  ; Amber99Sb-disp
 H1  C8  O3     1    109.500  418.400  ; Amber99Sb-disp
 CT  C8  O3     1    109.500  418.400  ; Amber99Sb-disp
 C8  O3  HO     1    108.500  460.240  ; Amber99Sb-disp
 H1  C8  OH     1    109.500  418.400  ; Amber99Sb-disp
 CT  C8  OH     1    109.500  418.400  ; Amber99Sb-disp
 C8  OH  HO     1    108.500  460.240  ; Amber99Sb-disp
 CT  C8  CT     1    109.500  334.720  ; Amber99Sb-disp
 CT  C8  H1     1    109.500  418.400  ; Amber99Sb-disp
 CT  C8  HC     1    109.500  418.400  ; Amber99Sb-disp
 CT  C9  H1     1    109.500  418.400  ; Amber99Sb-disp
 H1  C9  S      1    109.500  418.400  ; Amber99Sb-disp
 CT  C9  S      1    114.700  418.400  ; Amber99Sb-disp
 C9  S   CT     1     98.900  518.816  ; Amber99Sb-disp
 CT  C9  HC     1    109.500  418.400  ; Amber99Sb-disp
 CT  C9  CT     1    109.500  334.720  ; Amber99Sb-disp
 C9  CT  CT     1    109.500  334.720  ; Amber99Sb-disp
 HC  C9  HC     1    109.500  292.880  ; Amber99Sb-disp
 C9  CT  HC     1    109.500  418.400  ; Amber99Sb-disp
 C9  CT  H1     1    109.500  418.400  ; Amber99Sb-disp
 H1  C9  H1     1    109.500  292.880  ; Amber99Sb-disp
 C9  C   O      1    120.400  669.440  ; Amber99Sb-disp
 C9  C   O2     1    117.000  585.760  ; Amber99Sb-disp
 C9  C   OH     1    110.000  669.440  ; Amber99Sb-disp
 C9  C   N      1    116.600  585.760  ; Amber99Sb-disp
 C   C9  CT     1    111.100  527.184  ; Amber99Sb-disp
 C   C9  HC     1    109.500  418.400  ; Amber99Sb-disp
 C9  CT  N2     1    111.200  669.440  ; Amber99Sb-disp
 C8  CT  N      1    109.700  669.440  ; Amber99Sb-disp
 C   CT  C8     1    111.100  527.184  ; Amber99Sb-disp
 C8  CT  HC     1    109.500  418.400  ; Amber99Sb-disp
 C8  CT  H1     1    109.500  418.400  ; Amber99Sb-disp
 H4  C   N      1    120.000  418.400  ; Amber99Sb-disp
 HW  OW  HW     1    104.520  836.800  ; Amber99Sb-disp
 HW  HW  OW     1    127.740    0.000  ; Amber99Sb-disp
 C   C   O      1    120.000  669.440  ; Amber99Sb-disp
 C   C   OH     1    120.000  669.440  ; Amber99Sb-disp
 CA  C   CA     1    120.000  527.184  ; Amber99Sb-disp
 CA  C   OH     1    120.000  585.760  ; Amber99Sb-disp
 CB  C   NA     1    111.300  585.760  ; Amber99Sb-disp
 CB  C   O      1    128.800  669.440  ; Amber99Sb-disp
 CM  C   NA     1    114.100  585.760  ; Amber99Sb-disp
 CM  C   O      1    125.300  669.440  ; Amber99Sb-disp
 CT  C   O      1    120.400  669.440  ; Amber99Sb-disp
 CT  C   OB     1    120.400  669.440  ; Amber99Sb-disp
 CT  C   O2     1    117.000  585.760  ; Amber99Sb-disp
 CT  C   N      1    116.600  585.760  ; Amber99Sb-disp
 CT  C   CT     1    117.000  527.184  ; Amber99Sb-disp
 CT  C   OS     1    115.000  669.440  ; Amber99Sb-disp
 CT  C   OH     1    110.000  669.440  ; Amber99Sb-disp
 N*  C   NA     1    115.400  585.760  ; Amber99Sb-disp
 N*  C   NC     1    118.600  585.760  ; Amber99Sb-disp
 N*  C   O      1    120.900  669.440  ; Amber99Sb-disp
 NA  C   O      1    120.600  669.440  ; Amber99Sb-disp
 NC  C   O      1    122.500  669.440  ; Amber99Sb-disp
 N   C   O      1    122.900  669.440  ; Amber99Sb-disp
 N   C   OB     1    122.900  669.440  ; Amber99Sb-disp
 O   C   O      1    126.000  669.440  ; Amber99Sb-disp
 O   C   OH     1    120.000  669.440  ; Amber99Sb-disp
 O   C   OS     1    125.000  669.440  ; Amber99Sb-disp
 O2  C   O2     1    126.000  669.440  ; Amber99Sb-disp
 H4  C   C      1    120.000  418.400  ; Amber99Sb-disp
 H4  C   CM     1    115.000  418.400  ; Amber99Sb-disp
 H4  C   CT     1    115.000  418.400  ; Amber99Sb-disp
 H4  C   O      1    120.000  418.400  ; Amber99Sb-disp
 H4  C   OH     1    120.000  418.400  ; Amber99Sb-disp
 H5  C   N      1    120.000  418.400  ; Amber99Sb-disp
 H5  C   O      1    119.000  418.400  ; Amber99Sb-disp
 H5  C   OH     1    107.000  418.400  ; Amber99Sb-disp
 H5  C   OS     1    107.000  418.400  ; Amber99Sb-disp
 C   CA  CA     1    120.000  527.184  ; Amber99Sb-disp
 C   CA  HA     1    120.000  418.400  ; Amber99Sb-disp
 CA  CA  CA     1    120.000  527.184  ; Amber99Sb-disp
 CA  CA  CB     1    120.000  527.184  ; Amber99Sb-disp
 CA  CA  CT     1    120.000  585.760  ; Amber99Sb-disp
 CA  CA  HA     1    120.000  418.400  ; Amber99Sb-disp
 CA  CA  H4     1    120.000  418.400  ; Amber99Sb-disp
 CA  CA  OH     1    120.000  585.760  ; Amber99Sb-disp
 CA  CA  CN     1    120.000  527.184  ; Amber99Sb-disp
 CB  CA  HA     1    120.000  418.400  ; Amber99Sb-disp
 CB  CA  H4     1    120.000  418.400  ; Amber99Sb-disp
 CB  CA  N2     1    123.500  585.760  ; Amber99Sb-disp
 CB  CA  NC     1    117.300  585.760  ; Amber99Sb-disp
 CM  CA  N2     1    120.100  585.760  ; Amber99Sb-disp
 CM  CA  NC     1    121.500  585.760  ; Amber99Sb-disp
 CN  CA  HA     1    120.000  418.400  ; Amber99Sb-disp
 NA  CA  NC     1    123.300  585.760  ; Amber99Sb-disp
 N2  CA  NA     1    116.000  585.760  ; Amber99Sb-disp
 N2  CA  NC     1    119.300  585.760  ; Amber99Sb-disp
 N2  CA  N2     1    120.000  585.760  ; Amber99Sb-disp
 F   CA  CA     1    121.000  585.760  ; Amber99Sb-disp
 Cl  CA  CA     1    118.800  585.760  ; Amber99Sb-disp
 I   CA  CA     1    118.800  585.760  ; Amber99Sb-disp
 C   CB  CB     1    119.200  527.184  ; Amber99Sb-disp
 C   CB  NB     1    130.000  585.760  ; Amber99Sb-disp
 CA  CB  CB     1    117.300  527.184  ; Amber99Sb-disp
 CA  CB  NB     1    132.400  585.760  ; Amber99Sb-disp
 CB  CB  N*     1    106.200  585.760  ; Amber99Sb-disp
 CB  CB  NB     1    110.400  585.760  ; Amber99Sb-disp
 CB  CB  NC     1    127.700  585.760  ; Amber99Sb-disp
 C*  CB  CA     1    134.900  527.184  ; Amber99Sb-disp
 C*  CB  CN     1    108.800  527.184  ; Amber99Sb-disp
 CA  CB  CN     1    116.200  527.184  ; Amber99Sb-disp
 N*  CB  NC     1    126.200  585.760  ; Amber99Sb-disp
 H5  CK  N*     1    123.050  418.400  ; Amber99Sb-disp
 H5  CK  NB     1    123.050  418.400  ; Amber99Sb-disp
 N*  CK  NB     1    113.900  585.760  ; Amber99Sb-disp
 C   CM  CM     1    120.700  527.184  ; Amber99Sb-disp
 C   CM  CT     1    119.700  585.760  ; Amber99Sb-disp
 C   CM  HA     1    119.700  418.400  ; Amber99Sb-disp
 C   CM  H4     1    119.700  418.400  ; Amber99Sb-disp
 CA  CM  CM     1    117.000  527.184  ; Amber99Sb-disp
 CA  CM  HA     1    123.300  418.400  ; Amber99Sb-disp
 CA  CM  H4     1    123.300  418.400  ; Amber99Sb-disp
 CM  CM  CT     1    119.700  585.760  ; Amber99Sb-disp
 CM  CM  HA     1    119.700  418.400  ; Amber99Sb-disp
 CM  CM  H4     1    119.700  418.400  ; Amber99Sb-disp
 CM  CM  N*     1    121.200  585.760  ; Amber99Sb-disp
 CM  CM  OS     1    125.000  669.440  ; Amber99Sb-disp
 H4  CM  N*     1    119.100  418.400  ; Amber99Sb-disp
 H4  CM  OS     1    113.000  418.400  ; Amber99Sb-disp
 HA  CM  HA     1    120.000  292.880  ; Amber99Sb-disp
 HA  CM  CT     1    120.000  418.400  ; Amber99Sb-disp
 NC  CQ  NC     1    129.100  585.760  ; Amber99Sb-disp
 H5  CQ  NC     1    115.450  418.400  ; Amber99Sb-disp
 H1  CT  H1     1    109.500  292.880  ; Amber99Sb-disp
 H1  CT  N*     1    109.500  418.400  ; Amber99Sb-disp
 H1  CT  OH     1    109.500  418.400  ; Amber99Sb-disp
 H1  CT  OS     1    109.500  418.400  ; Amber99Sb-disp
 H1  CT  CM     1    109.500  418.400  ; Amber99Sb-disp
 H1  CT  N      1    109.500  418.400  ; Amber99Sb-disp
 H1  CT  S      1    109.500  418.400  ; Amber99Sb-disp
 H1  CT  SH     1    109.500  418.400  ; Amber99Sb-disp
 H1  CT  N2     1    109.500  418.400  ; Amber99Sb-disp
 H2  CT  H2     1    109.500  292.880  ; Amber99Sb-disp
 H2  CT  N*     1    109.500  418.400  ; Amber99Sb-disp
 H2  CT  OS     1    109.500  418.400  ; Amber99Sb-disp
 HP  CT  HP     1    109.500  292.880  ; Amber99Sb-disp
 HP  CT  N3     1    109.500  418.400  ; Amber99Sb-disp
 HC  CT  HC     1    109.500  292.880  ; Amber99Sb-disp
 HC  CT  CM     1    109.500  418.400  ; Amber99Sb-disp
 C   CT  H1     1    109.500  418.400  ; Amber99Sb-disp
 C   CT  HP     1    109.500  418.400  ; Amber99Sb-disp
 C   CT  HC     1    109.500  418.400  ; Amber99Sb-disp
 C   CT  N      1    110.100  527.184  ; Amber99Sb-disp
 C   CT  N3     1    111.200  669.440  ; Amber99Sb-disp
 C   CT  CT     1    111.100  527.184  ; Amber99Sb-disp
 C   CT  OS     1    109.500  502.080  ; Amber99Sb-disp
 CA  CT  HC     1    109.500  418.400  ; Amber99Sb-disp
 CC  CT  CT     1    113.100  527.184  ; Amber99Sb-disp
 CC  CT  HC     1    109.500  418.400  ; Amber99Sb-disp
 CM  CT  CT     1    111.000  527.184  ; Amber99Sb-disp
 CM  CT  OS     1    109.500  418.400  ; Amber99Sb-disp
 CT  CT  CT     1    109.500  334.720  ; Amber99Sb-disp
 CT  CT  HC     1    109.500  418.400  ; Amber99Sb-disp
 CT  CT  H1     1    109.500  418.400  ; Amber99Sb-disp
 CT  CT  H2     1    109.500  418.400  ; Amber99Sb-disp
 CT  CT  HP     1    109.500  418.400  ; Amber99Sb-disp
 CT  CT  N*     1    109.500  418.400  ; Amber99Sb-disp
 CT  CT  OH     1    109.500  418.400  ; Amber99Sb-disp
 CT  CT  OS     1    109.500  418.400  ; Amber99Sb-disp
 CT  CT  S      1    114.700  418.400  ; Amber99Sb-disp
 CT  CT  SH     1    108.600  418.400  ; Amber99Sb-disp
 CT  CT  CA     1    114.000  527.184  ; Amber99Sb-disp
 CT  CT  N2     1    111.200  669.440  ; Amber99Sb-disp
 CT  CT  N      1    109.700  669.440  ; Amber99Sb-disp
 CT  CT  N3     1    111.200  669.440  ; Amber99Sb-disp
 C*  CT  CT     1    115.600  527.184  ; Amber99Sb-disp
 C*  CT  HC     1    109.500  418.400  ; Amber99Sb-disp
 OS  CT  OS     1    101.000 1338.880  ; Amber99Sb-disp
 OS  CT  N*     1    109.500  418.400  ; Amber99Sb-disp
 F   CT  F      1    109.100  644.336  ; Amber99Sb-disp
 F   CT  H1     1    109.500  418.400  ; Amber99Sb-disp
 F   CT  CT     1    109.000  418.400  ; Amber99Sb-disp
 F   CT  H2     1    109.500  418.400  ; Amber99Sb-disp
 Cl  CT  CT     1    108.500  418.400  ; Amber99Sb-disp
 Cl  CT  H1     1    108.500  418.400  ; Amber99Sb-disp
 I   CT  CT     1    106.000  418.400  ; Amber99Sb-disp
 CT  CC  NA     1    120.000  585.760  ; Amber99Sb-disp
 CT  CC  CV     1    120.000  585.760  ; Amber99Sb-disp
 CT  CC  NB     1    120.000  585.760  ; Amber99Sb-disp
 CV  CC  NA     1    120.000  585.760  ; Amber99Sb-disp
 CW  CC  NA     1    120.000  585.760  ; Amber99Sb-disp
 CW  CC  NB     1    120.000  585.760  ; Amber99Sb-disp
 CT  CC  CW     1    120.000  585.760  ; Amber99Sb-disp
 H5  CR  NA     1    120.000  418.400  ; Amber99Sb-disp
 H5  CR  NB     1    120.000  418.400  ; Amber99Sb-disp
 NA  CR  NA     1    120.000  585.760  ; Amber99Sb-disp
 NA  CR  NB     1    120.000  585.760  ; Amber99Sb-disp
 CC  CV  H4     1    120.000  418.400  ; Amber99Sb-disp
 CC  CV  NB     1    120.000  585.760  ; Amber99Sb-disp
 H4  CV  NB     1    120.000  418.400  ; Amber99Sb-disp
 CC  CW  H4     1    120.000  418.400  ; Amber99Sb-disp
 CC  CW  NA     1    120.000  585.760  ; Amber99Sb-disp
 C*  CW  H4     1    120.000  418.400  ; Amber99Sb-disp
 C*  CW  NA     1    108.700  585.760  ; Amber99Sb-disp
 H4  CW  NA     1    120.000  418.400  ; Amber99Sb-disp
 CB  C*  CT     1    128.600  585.760  ; Amber99Sb-disp
 CB  C*  CW     1    106.400  527.184  ; Amber99Sb-disp
 CT  C*  CW     1    125.000  585.760  ; Amber99Sb-disp
 CA  CN  CB     1    122.700  527.184  ; Amber99Sb-disp
 CA  CN  NA     1    132.800  585.760  ; Amber99Sb-disp
 CB  CN  NA     1    104.400  585.760  ; Amber99Sb-disp
 C   N   CT     1    121.900  418.400  ; Amber99Sb-disp
 C   N   H      1    120.000  418.400  ; Amber99Sb-disp
 C   N   HB     1    120.000  418.400  ; Amber99Sb-disp
 CT  N   H      1    118.040  418.400  ; Amber99Sb-disp
 CT  N   HB     1    118.040  418.400  ; Amber99Sb-disp
 CT  N   CT     1    118.000  418.400  ; Amber99Sb-disp
 H   N   H      1    120.000  292.880  ; Amber99Sb-disp
 C   N*  CM     1    121.600  585.760  ; Amber99Sb-disp
 C   N*  CT     1    117.600  585.760  ; Amber99Sb-disp
 C   N*  H      1    119.200  418.400  ; Amber99Sb-disp
 CB  N*  CK     1    105.400  585.760  ; Amber99Sb-disp
 CB  N*  CT     1    125.800  585.760  ; Amber99Sb-disp
 CB  N*  H      1    125.800  418.400  ; Amber99Sb-disp
 CK  N*  CT     1    128.800  585.760  ; Amber99Sb-disp
 CK  N*  H      1    128.800  418.400  ; Amber99Sb-disp
 CM  N*  CT     1    121.200  585.760  ; Amber99Sb-disp
 CM  N*  H      1    121.200  418.400  ; Amber99Sb-disp
 CA  N2  H      1    120.000  418.400  ; Amber99Sb-disp
 CA  N2  CT     1    123.200  418.400  ; Amber99Sb-disp
 CT  N2  H      1    118.400  418.400  ; Amber99Sb-disp
 H   N2  H      1    120.000  292.880  ; Amber99Sb-disp
 CT  N3  H      1    109.500  418.400  ; Amber99Sb-disp
 CT  N3  CT     1    109.500  418.400  ; Amber99Sb-disp
 H   N3  H      1    109.500  292.880  ; Amber99Sb-disp
 C   NA  C      1    126.400  585.760  ; Amber99Sb-disp
 C   NA  CA     1    125.200  585.760  ; Amber99Sb-disp
 C   NA  H      1    116.800  418.400  ; Amber99Sb-disp
 CA  NA  H      1    118.000  418.400  ; Amber99Sb-disp
 CC  NA  CR     1    120.000  585.760  ; Amber99Sb-disp
 CC  NA  H      1    120.000  418.400  ; Amber99Sb-disp
 CR  NA  CW     1    120.000  585.760  ; Amber99Sb-disp
 CR  NA  H      1    120.000  418.400  ; Amber99Sb-disp
 CW  NA  H      1    120.000  418.400  ; Amber99Sb-disp
 CN  NA  CW     1    111.600  585.760  ; Amber99Sb-disp
 CN  NA  H      1    123.100  418.400  ; Amber99Sb-disp
 CB  NB  CK     1    103.800  585.760  ; Amber99Sb-disp
 CC  NB  CR     1    117.000  585.760  ; Amber99Sb-disp
 CR  NB  CV     1    117.000  585.760  ; Amber99Sb-disp
 C   NC  CA     1    120.500  585.760  ; Amber99Sb-disp
 CA  NC  CB     1    112.200  585.760  ; Amber99Sb-disp
 CA  NC  CQ     1    118.600  585.760  ; Amber99Sb-disp
 CB  NC  CQ     1    111.000  585.760  ; Amber99Sb-disp
 C   OH  HO     1    113.000  418.400  ; Amber99Sb-disp
 CA  OH  HO     1    113.000  418.400  ; Amber99Sb-disp
 CT  OH  HO     1    108.500  460.240  ; Amber99Sb-disp
 HO  OH  P      1    108.500  376.560  ; Amber99Sb-disp
 C   OS  CT     1    117.000  502.080  ; Amber99Sb-disp
 CM  OS  CT     1    117.000  502.080  ; Amber99Sb-disp
 CT  OS  CT     1    109.500  502.080  ; Amber99Sb-disp
 CT  OS  P      1    120.500  836.800  ; Amber99Sb-disp
 P   OS  P      1    120.500  836.800  ; Amber99Sb-disp
 O2  P   OH     1    108.230  376.560  ; Amber99Sb-disp
 O2  P   O2     1    119.900 1171.520  ; Amber99Sb-disp
 O2  P   OS     1    108.230  836.800  ; Amber99Sb-disp
 OH  P   OS     1    102.600  376.560  ; Amber99Sb-disp
 OS  P   OS     1    102.600  376.560  ; Amber99Sb-disp
 CT  S   CT     1     98.900  518.816  ; Amber99Sb-disp
 CT  S   S      1    103.700  569.024  ; Amber99Sb-disp
 CT  SH  HS     1     96.000  359.824  ; Amber99Sb-disp
 HS  SH  HS     1     92.070  292.880  ; Amber99Sb-disp
 C7  C   O      1    120.400  669.440  ; Amber99Sb-disp
 C7  C   OB     1    120.400  669.440  ; Amber99Sb-disp
 C7  C   O2     1    117.000  585.760  ; Amber99Sb-disp
 C7  C   N      1    116.600  585.760  ; Amber99Sb-disp
 H1  C7  H1     1    109.500  292.880  ; Amber99Sb-disp
 H1  C7  N      1    109.500  418.400  ; Amber99Sb-disp
 HP  C7  HP     1    109.500  292.880  ; Amber99Sb-disp
 HP  C7  N3     1    109.500  418.400  ; Amber99Sb-disp
 C   C7  H1     1    109.500  418.400  ; Amber99Sb-disp
 C   C7  HP     1    109.500  418.400  ; Amber99Sb-disp
 C   C7  N      1    110.100  527.184  ; Amber99Sb-disp
 C   C7  N3     1    111.200  669.440  ; Amber99Sb-disp
 C   N   C7     1    121.900  418.400  ; Amber99Sb-disp
 C7  N   H      1    118.040  418.400  ; Amber99Sb-disp
 C7  N   HB     1    118.040  418.400  ; Amber99Sb-disp
 C7  N3  H      1    109.500  418.400  ; Amber99Sb-disp
 C7  N   CT     1    118.000  418.400  ; Amber99Sb-disp
 C7  N3  CT     1    109.500  418.400  ; Amber99Sb-disp
 CT  C7  N3     1    111.200  669.440  ; Amber99Sb-disp
 CT  C7  HP     1    109.500  418.400  ; Amber99Sb-disp
 C7  CT  CT     1    109.500  334.720  ; Amber99Sb-disp
 C7  CT  HC     1    109.500  418.400  ; Amber99Sb-disp
 CT  C7  N      1    109.700  669.440  ; Amber99Sb-disp
 C   C7  CT     1    111.100  527.184  ; Amber99Sb-disp
 CT  C7  H1     1    109.500  418.400  ; Amber99Sb-disp
 CT  C5  O      1    120.400  669.440  ; Amber99Sb-disp
 CT  C6  O2     1    117.000  585.760  ; Amber99Sb-disp
 CT  CC  O2     1    117.000  585.760  ; Amber99Sb-disp
 CT  C5  N      1    116.600  585.760  ; Amber99Sb-disp
 N   C5  O      1    122.900  669.440  ; Amber99Sb-disp
 O2  C6  O2     1    126.000  669.440  ; Amber99Sb-disp
 O2  CC  O2     1    126.000  669.440  ; Amber99Sb-disp
 HC  C3  HC     1    109.500  292.880  ; Amber99Sb-disp
 C5  CT  HC     1    109.500  418.400  ; Amber99Sb-disp
 C6  CT  HC     1    109.500  418.400  ; Amber99Sb-disp
 C5  CT  CT     1    111.100  527.184  ; Amber99Sb-disp
 C6  CT  CT     1    111.100  527.184  ; Amber99Sb-disp
 CT  C4  CT     1    109.500  334.720  ; Amber99Sb-disp
 CT  CT  C4     1    109.500  334.720  ; Amber99Sb-disp
 C4  CT  HC     1    109.500  418.400  ; Amber99Sb-disp
 CT  C4  HC     1    109.500  418.400  ; Amber99Sb-disp
 CT  CT  C3     1    109.500  334.720  ; Amber99Sb-disp
 CT  C3  HC     1    109.500  418.400  ; Amber99Sb-disp
 C3  CT  HC     1    109.500  418.400  ; Amber99Sb-disp
 C5  N   H      1    120.000  418.400  ; Amber99Sb-disp
 C5  N   HB     1    120.000  418.400  ; Amber99Sb-disp
 HP  C1  HP     1    109.500  292.880  ; Amber99Sb-disp
 HP  C1  N3     1    109.500  418.400  ; Amber99Sb-disp
 C   C1  HP     1    109.500  418.400  ; Amber99Sb-disp
 CT  C1  HP     1    109.500  418.400  ; Amber99Sb-disp

[ dihedraltypes ]
C C1 N O 4 180.0 4.60240 2   sC   sC1    sN    sO     4    4.60240   4.602     2
C C1 N OB 4 180.0 4.60240 2   sC   sC1    sN   sOB     4    4.60240   4.602     2
C C1 N H 4 180.0 4.60240 2   sC   sC1    sN    sH     4    4.60240   4.602     2
C C1 N HB 4 180.0 4.60240 2   sC   sC1    sN   sHB     4    4.60240   4.602     2
C9 O C OH 4 180.0 43.93200 2  sC9    sO    sC   sOH     4    43.93200  43.932    2
CB CK N* CT 4 180.0 4.18400 2  sCB   sCK   sN*   sCT     4    4.18400   4.184     2
C CM N* CT 4 180.0 4.18400 2   sC   sCM   sN*   sCT     4    4.18400   4.184     2
CT O C OH 4 180.0 43.93200 2  sCT    sO    sC   sOH     4    43.93200  43.932    2
CT CV CC NA 4 180.0 4.60240 2  sCT   sCV   sCC   sNA     4    4.60240   4.602     2
CT CW CC NB 4 180.0 4.60240 2  sCT   sCW   sCC   sNB     4    4.60240   4.602     2
CT CC CW NB 4 180.0 4.60240 2  sCT   sCC   sCW   sNB     4    4.60240   4.602     2
CT CW CC NA 4 180.0 4.60240 2  sCT   sCW   sCC   sNA     4    4.60240   4.602     2
CB CT C* CW 4 180.0 4.60240 2  sCB   sCT   sC*   sCW     4    4.60240   4.602     2
CA CA CA CT 4 180.0 4.60240 2  sCA   sCA   sCA   sCT     4    4.60240   4.602     2
C CM CM CT 4 180.0 4.60240 2   sC   sCM   sCM   sCT     4    4.60240   4.602     2
CM N2 CA NC 4 180.0 4.60240 2  sCM   sN2   sCA   sNC     4    4.60240   4.602     2
CB N2 CA NC 4 180.0 4.60240 2  sCB   sN2   sCA   sNC     4    4.60240   4.602     2
N2 NA CA NC 4 180.0 4.60240 2  sN2   sNA   sCA   sNC     4    4.60240   4.602     2
CA CA C OH 4 180.0 4.60240 2  sCA   sCA    sC   sOH     4    4.60240   4.602     2
CA CA CA OH 4 180.0 4.60240 2  sCA   sCA   sCA   sOH     4    4.60240   4.602     2
H5 O C OH 4 180.0 4.60240 2  sH5    sO    sC   sOH     4    4.60240   4.602     2
H5 O C OS 4 180.0 4.60240 2  sH5    sO    sC   sOS     4    4.60240   4.602     2
CM CT CM HA 4 180.0 4.60240 2  sCM   sCT   sCM   sHA     4    4.60240   4.602     2
Br CA CA CA 4 180.0 4.60240 2  sBr   sCA   sCA   sCA     4    4.60240   4.602     2
CM H4 C O 4 180.0 4.60240 2  sCM   sH4    sC    sO     4    4.60240   4.602     2
C CT N H 4 180.0 4.60240 2   sC   sCT    sN    sH     4    4.60240   4.602     2
C CT N HB 4 180.0 4.60240 2   sC   sCT    sN   sHB     4    4.60240   4.602     2
C CT N O 4 180.0 4.60240 2   sC   sCT    sN    sO     4    4.60240   4.602     2
C C7 N O 4 180.0 4.60240 2   sC   sC7    sN    sO     4    4.60240   4.602     2
C CT N OB 4 180.0 4.60240 2   sC   sCT    sN   sOB     4    4.60240   4.602     2
C C7 N OB 4 180.0 4.60240 2   sC   sC7    sN   sOB     4    4.60240   4.602     2
C C7 N H 4 180.0 4.60240 2   sC   sC7    sN    sH     4    4.60240   4.602     2
C C7 N HB 4 180.0 4.60240 2   sC   sC7    sN   sHB     4    4.60240   4.602     2
C5 CT N O 4 180.0 4.60240 2  sC5   sCT    sN    sO     4    4.60240   4.602     2
C5 CT N OB 4 180.0 4.60240 2  sC5   sCT    sN   sOB     4    4.60240   4.602     2
C5 CT N H 4 180.0 4.60240 2  sC5   sCT    sN    sH     4    4.60240   4.602     2
C5 CT N HB 4 180.0 4.60240 2  sC5   sCT    sN   sHB     4    4.60240   4.602     2
X CT N C1 4 180.0 4.18400 2    X   sCT    sN   sC1     4    4.18400   4.184     2
X CT N C7 4 180.0 4.18400 2    X   sCT    sN   sC7     4    4.18400   4.184     2
X O2 C6 O2 4 180.0 43.93200 2    X   sO2   sC6   sO2     4    43.93200  43.932    2
X O2 C O2 4 180.0 43.93200 2    X   sO2    sC   sO2     4    43.93200  43.932    2
X N2 CA N2 4 180.0 43.93200 2    X   sN2   sCA   sN2     4    43.93200  43.932    2
X CT N CT 4 180.0 4.18400 2    X   sCT    sN   sCT     4    4.18400   4.184     2
X X C O 4 180.0 43.93200 2    X     X    sC    sO     4    43.93200  43.932    2
X X C OB 4 180.0 43.93200 2    X     X    sC   sOB     4    43.93200  43.932    2
X X N H 4 180.0 4.18400 2    X     X    sN    sH     4    4.18400   4.184     2
X X N2 H 4 180.0 4.18400 2    X     X   sN2    sH     4    4.18400   4.184     2
X X NA H 4 180.0 4.18400 2    X     X   sNA    sH     4    4.18400   4.184     2
X X CA HA 4 180.0 4.60240 2    X     X   sCA   sHA     4    4.60240   4.602     2
X X CW H4 4 180.0 4.60240 2    X     X   sCW   sH4     4    4.60240   4.602     2
X X CR H5 4 180.0 4.60240 2    X     X   sCR   sH5     4    4.60240   4.602     2
X X CV H4 4 180.0 4.60240 2    X     X   sCV   sH4     4    4.60240   4.602     2
X X CQ H5 4 180.0 4.60240 2    X     X   sCQ   sH5     4    4.60240   4.602     2
X X CK H5 4 180.0 4.60240 2    X     X   sCK   sH5     4    4.60240   4.602     2
X X CM H4 4 180.0 4.60240 2    X     X   sCM   sH4     4    4.60240   4.602     2
X X CM HA 4 180.0 4.60240 2    X     X   sCM   sHA     4    4.60240   4.602     2
X X CA H4 4 180.0 4.60240 2    X     X   sCA   sH4     4    4.60240   4.602     2
X X CA H5 4 180.0 4.60240 2    X     X   sCA   sH5     4    4.60240   4.602     2
X X C5 O 4 180.0 43.93200 2    X     X   sC5    sO     4    43.93200  43.932    2
C8 CT C N 9 0.0 0.83680 1  sC8   sCT    sC    sN     9    0.83680   0.837     1
C8 CT C N 9 0.0 0.83680 2  sC8   sCT    sC    sN     9    0.83680   0.837     2
C8 CT C N 9 0.0 1.67360 3  sC8   sCT    sC    sN     9    1.67360   1.674     3
C8 CT N C 9 0.0 8.36800 1  sC8   sCT    sN    sC     9    8.36800   8.368     1
C8 CT N C 9 0.0 8.36800 2  sC8   sCT    sN    sC     9    8.36800   8.368     2
C8 CT N C 9 0.0 1.67360 3  sC8   sCT    sN    sC     9    1.67360   1.674     3
C CT C8 O3 9 180.0 4.18400 1   sC   sCT   sC8   sO3     9    4.18400   4.184     1
C CT C8 OH 9 180.0 3.76560 1   sC   sCT   sC8   sOH     9    3.76560   3.766     1
C CT CT C4 9 0.0 2.39074 1   sC   sCT   sCT   sC4     9    2.39074   2.391     1
C CT CT C4 9 180.0 1.49913 2   sC   sCT   sCT   sC4     9    1.49913   1.499     2
C CT CT C4 9 0.0 0.56400 3   sC   sCT   sCT   sC4     9    0.56400   0.564     3
C CT CT C5 9 0.0 0.71421 1   sC   sCT   sCT   sC5     9    0.71421   0.714     1
C CT CT C5 9 180.0 2.49241 2   sC   sCT   sCT   sC5     9    2.49241   2.492     2
C CT CT C5 9 0.0 0.49580 3   sC   sCT   sCT   sC5     9    0.49580   0.496     3
C CT CT C5 9 180.0 1.74556 4   sC   sCT   sCT   sC5     9    1.74556   1.746     4
C CT CT C5 9 0.0 0.43597 5   sC   sCT   sCT   sC5     9    0.43597   0.436     5
C CT CT C5 9 180.0 0.42142 6   sC   sCT   sCT   sC5     9    0.42142   0.421     6
C CT CT C* 9 0.0 1.21336 1   sC   sCT   sCT   sC*     9    1.21336   1.213     1
C CT CT C9 9 0.0 1.25520 1   sC   sCT   sCT   sC9     9    1.25520   1.255     1
C CT CT CA 9 0.0 2.17568 1   sC   sCT   sCT   sCA     9    2.17568   2.176     1
C CT CT CC 9 0.0 2.92880 1   sC   sCT   sCT   sCC     9    2.92880   2.929     1
C CT CT SH 9 180.0 0.66944 1   sC   sCT   sCT   sSH     9    0.66944   0.669     1
Cl CT CT Cl 9 180.0 1.88280 1  sCl   sCT   sCT   sCl     9    1.88280   1.883     1
CM CM C O 9 180.0 9.10020 2  sCM   sCM    sC    sO     9    9.10020   9.100     2
CM CM C O 9 0.0 1.25520 3  sCM   sCM    sC    sO     9    1.25520   1.255     3
C N C1 C 9 0.0 0.35267 1   sC    sN   sC1    sC     9    0.35267   0.353     1
C N C1 C 9 0.0 1.59541 2   sC    sN   sC1    sC     9    1.59541   1.595     2
C N C1 C 9 180.0 0.08381 3   sC    sN   sC1    sC     9    0.08381   0.084     3
C N C1 C 9 0.0 0.32396 4   sC    sN   sC1    sC     9    0.32396   0.324     4
C N C7 C 9 0.0 1.12968 2   sC    sN   sC7    sC     9    1.12968   1.130     2
C N C7 C 9 0.0 1.75728 3   sC    sN   sC7    sC     9    1.75728   1.757     3
C N CT C 9 180.0 0.14226 1   sC    sN   sCT    sC     9    0.14226   0.142     1
C N CT C 9 0.0 1.40164 2   sC    sN   sCT    sC     9    1.40164   1.402     2
C N CT C 9 0.0 2.27610 3   sC    sN   sCT    sC     9    2.27610   2.276     3
C N CT C 9 0.0 0.33472 4   sC    sN   sCT    sC     9    0.33472   0.335     4
CT C7 C N 9 0.0 0.83680 1  sCT   sC7    sC    sN     9    0.83680   0.837     1
CT C7 C N 9 0.0 0.83680 2  sCT   sC7    sC    sN     9    0.83680   0.837     2
CT C7 C N 9 0.0 1.67360 3  sCT   sC7    sC    sN     9    1.67360   1.674     3
CT C7 N C 9 0.0 8.36800 1  sCT   sC7    sN    sC     9    8.36800   8.368     1
CT C7 N C 9 0.0 8.36800 2  sCT   sC7    sN    sC     9    8.36800   8.368     2
CT C7 N C 9 0.0 1.67360 3  sCT   sC7    sN    sC     9    1.67360   1.674     3
CT C9 C O2 9 180.0 2.51040 2  sCT   sC9    sC   sO2     9    2.51040   2.510     2
CT C9 C O 9 180.0 2.51040 2  sCT   sC9    sC    sO     9    2.51040   2.510     2
CT C9 C OB 9 180.0 2.51040 2  sCT   sC9    sC   sOB     9    2.51040   2.510     2
CT CM CM CT 9 180.0 27.82360 2  sCT   sCM   sCM   sCT     9    27.82360  27.824    2
CT CM CM CT 9 180.0 7.94960 1  sCT   sCM   sCM   sCT     9    7.94960   7.950     1
CT CT C4 CT 9 0.0 0.62760 3  sCT   sCT   sC4   sCT     9    0.62760   0.628     3
CT CT C5 O 9 180.0 4.18400 1  sCT   sCT   sC5    sO     9    4.18400   4.184     1
CT CT C6 O2 9 180.0 0.77822 4  sCT   sCT   sC6   sO2     9    0.77822   0.778     4
CT CT C6 O2 9 180.0 1.48114 6  sCT   sCT   sC6   sO2     9    1.48114   1.481     6
CT CT C6 O2 9 180.0 3.65263 2  sCT   sCT   sC6   sO2     9    3.65263   3.653     2
CT CT C* CW 9 0.0 5.02080 1  sCT   sCT   sC*   sCW     9    5.02080   5.021     1
CT CT C N 9 0.0 0.83680 1  sCT   sCT    sC    sN     9    0.83680   0.837     1
CT CT C N 9 0.0 0.83680 2  sCT   sCT    sC    sN     9    0.83680   0.837     2
CT CT C N 9 0.0 1.67360 3  sCT   sCT    sC    sN     9    1.67360   1.674     3
CT CT CT C3 9 0.0 0.62760 3  sCT   sCT   sCT   sC3     9    0.62760   0.628     3
CT CT CT C7 9 0.0 0.75312 3  sCT   sCT   sCT   sC7     9    0.75312   0.753     3
CT CT CT C7 9 180.0 0.83680 1  sCT   sCT   sCT   sC7     9    0.83680   0.837     1
CT CT CT C7 9 180.0 1.04600 2  sCT   sCT   sCT   sC7     9    1.04600   1.046     2
CT CT CT CT 9 0.0 0.62760 3  sCT   sCT   sCT   sCT     9    0.62760   0.628     3
CT CT N C 9 0.0 1.67360 3  sCT   sCT    sN    sC     9    1.67360   1.674     3
CT CT N C 9 0.0 8.36800 1  sCT   sCT    sN    sC     9    8.36800   8.368     1
CT CT N C 9 0.0 8.36800 2  sCT   sCT    sN    sC     9    8.36800   8.368     2
CT CT OS C 9 0.0 1.60247 3  sCT   sCT   sOS    sC     9    1.60247   1.602     3
CT CT OS C 9 180.0 3.34720 1  sCT   sCT   sOS    sC     9    3.34720   3.347     1
CT CT OS CT 9 0.0 1.60247 3  sCT   sCT   sOS   sCT     9    1.60247   1.602     3
CT CT OS CT 9 180.0 0.41840 2  sCT   sCT   sOS   sCT     9    0.41840   0.418     2
CT CT SH HS 9 0.0 0.83680 3  sCT   sCT   sSH   sHS     9    0.83680   0.837     3
CT CT SH HS 9 0.0 2.09200 2  sCT   sCT   sSH   sHS     9    2.09200   2.092     2
CT OS CT N* 9 0.0 1.60247 3  sCT   sOS   sCT   sN*     9    1.60247   1.602     3
CT OS CT N* 9 0.0 2.71960 2  sCT   sOS   sCT   sN*     9    2.71960   2.720     2
CT OS CT OS 9 0.0 0.41840 3  sCT   sOS   sCT   sOS     9    0.41840   0.418     3
CT OS CT OS 9 180.0 3.55640 2  sCT   sOS   sCT   sOS     9    3.55640   3.556     2
CT OS CT OS 9 180.0 5.64840 1  sCT   sOS   sCT   sOS     9    5.64840   5.648     1
CT S S CT 9 0.0 14.64400 2  sCT    sS    sS   sCT     9    14.64400  14.644    2
CT S S CT 9 0.0 2.51040 3  sCT    sS    sS   sCT     9    2.51040   2.510     3
F CT CT F 9 180.0 5.02080 1   sF   sCT   sCT    sF     9    5.02080   5.021     1
H1 C1 C O 9 0.0 3.34720 1  sH1   sC1    sC    sO     9    3.34720   3.347     1
H1 C1 C O 9 180.0 0.33472 3  sH1   sC1    sC    sO     9    0.33472   0.335     3
H1 C7 C O 9 0.0 3.34720 1  sH1   sC7    sC    sO     9    3.34720   3.347     1
H1 C7 C O 9 180.0 0.33472 3  sH1   sC7    sC    sO     9    0.33472   0.335     3
H1 CT C O 9 0.0 3.34720 1  sH1   sCT    sC    sO     9    3.34720   3.347     1
H1 CT C O 9 180.0 0.33472 3  sH1   sCT    sC    sO     9    0.33472   0.335     3
H1 C1 C OB 9 0.0 3.34720 1  sH1   sC1    sC   sOB     9    3.34720   3.347     1
H1 C1 C OB 9 180.0 0.33472 3  sH1   sC1    sC   sOB     9    0.33472   0.335     3
H1 C7 C OB 9 0.0 3.34720 1  sH1   sC7    sC   sOB     9    3.34720   3.347     1
H1 C7 C OB 9 180.0 0.33472 3  sH1   sC7    sC   sOB     9    0.33472   0.335     3
H1 CT C OB 9 0.0 3.34720 1  sH1   sCT    sC   sOB     9    3.34720   3.347     1
H1 CT C OB 9 180.0 0.33472 3  sH1   sCT    sC   sOB     9    0.33472   0.335     3
H1 CT CT Br 9 0.0 2.30120 1  sH1   sCT   sCT   sBr     9    2.30120   2.301     1
H1 CT CT Cl 9 0.0 1.04600 1  sH1   sCT   sCT   sCl     9    1.04600   1.046     1
H1 CT CT F 9 0.0 0.79496 1  sH1   sCT   sCT    sF     9    0.79496   0.795     1
H1 CT CT OH 9 0.0 1.04600 1  sH1   sCT   sCT   sOH     9    1.04600   1.046     1
H1 CT CT OS 9 0.0 1.04600 1  sH1   sCT   sCT   sOS     9    1.04600   1.046     1
HC C3 CT CT 9 0.0 0.66944 3  sHC   sC3   sCT   sCT     9    0.66944   0.669     3
HC C4 CT CT 9 0.0 0.66944 3  sHC   sC4   sCT   sCT     9    0.66944   0.669     3
HC C4 CT HC 9 0.0 0.62760 3  sHC   sC4   sCT   sHC     9    0.62760   0.628     3
HC CT C3 HC 9 0.0 0.62760 3  sHC   sCT   sC3   sHC     9    0.62760   0.628     3
HC CT C4 CT 9 0.0 0.66944 3  sHC   sCT   sC4   sCT     9    0.66944   0.669     3
HC CT C5 O 9 0.0 3.34720 1  sHC   sCT   sC5    sO     9    3.34720   3.347     1
HC CT C5 O 9 180.0 0.33472 3  sHC   sCT   sC5    sO     9    0.33472   0.335     3
HC CT CM CM 9 0.0 4.81160 1  sHC   sCT   sCM   sCM     9    4.81160   4.812     1
HC CT CM CM 9 180.0 1.58992 3  sHC   sCT   sCM   sCM     9    1.58992   1.590     3
HC CT C O 9 0.0 3.34720 1  sHC   sCT    sC    sO     9    3.34720   3.347     1
HC CT C O 9 180.0 0.33472 3  sHC   sCT    sC    sO     9    0.33472   0.335     3
HC CT C OB 9 0.0 3.34720 1  sHC   sCT    sC   sOB     9    3.34720   3.347     1
HC CT C OB 9 180.0 0.33472 3  sHC   sCT    sC   sOB     9    0.33472   0.335     3
HC CT CT Br 9 0.0 2.30120 1  sHC   sCT   sCT   sBr     9    2.30120   2.301     1
HC CT CT C3 9 0.0 0.66944 3  sHC   sCT   sCT   sC3     9    0.66944   0.669     3
HC CT CT C4 9 0.0 0.66944 3  sHC   sCT   sCT   sC4     9    0.66944   0.669     3
HC CT CT C7 9 0.0 0.66944 3  sHC   sCT   sCT   sC7     9    0.66944   0.669     3
HC CT CT Cl 9 0.0 1.04600 1  sHC   sCT   sCT   sCl     9    1.04600   1.046     1
HC CT CT CT 9 0.0 0.66944 3  sHC   sCT   sCT   sCT     9    0.66944   0.669     3
HC CT CT F 9 0.0 0.79496 1  sHC   sCT   sCT    sF     9    0.79496   0.795     1
HC CT CT HC 9 0.0 0.62760 3  sHC   sCT   sCT   sHC     9    0.62760   0.628     3
HC CT CT OH 9 0.0 1.04600 1  sHC   sCT   sCT   sOH     9    1.04600   1.046     1
HC CT CT OS 9 0.0 1.04600 1  sHC   sCT   sCT   sOS     9    1.04600   1.046     1
H N C5 O 9 0.0 8.36800 1   sH    sN   sC5    sO     9    8.36800   8.368     1
H N C5 O 9 180.0 10.46000 2   sH    sN   sC5    sO     9    10.46000  10.460    2
H N C O 9 0.0 8.36800 1   sH    sN    sC    sO     9    8.36800   8.368     1
H N C O 9 180.0 10.46000 2   sH    sN    sC    sO     9    10.46000  10.460    2
HB N C OB 9 0.0 8.36800 1  sHB    sN    sC   sOB     9    8.36800   8.368     1
HB N C OB 9 180.0 10.46000 2  sHB    sN    sC   sOB     9    10.46000  10.460    2
HO O3 C8 CT 9 0.0 0.35982 1  sHO   sO3   sC8   sCT     9    0.35982   0.360     1
HO O3 C8 CT 9 0.0 0.41840 3  sHO   sO3   sC8   sCT     9    0.41840   0.418     3
HO O3 C8 CT 9 180.0 0.68199 2  sHO   sO3   sC8   sCT     9    0.68199   0.682     2
HO O3 C8 H1 9 0.0 0.41840 3  sHO   sO3   sC8   sH1     9    0.41840   0.418     3
HO OH C8 CT 9 0.0 0.25104 2  sHO   sOH   sC8   sCT     9    0.25104   0.251     2
HO OH C8 CT 9 0.0 0.83680 3  sHO   sOH   sC8   sCT     9    0.83680   0.837     3
HO OH C8 CT 9 0.0 3.13800 1  sHO   sOH   sC8   sCT     9    3.13800   3.138     1
HO OH C O 9 0.0 7.94960 1  sHO   sOH    sC    sO     9    7.94960   7.950     1
HO OH C O 9 180.0 9.62320 2  sHO   sOH    sC    sO     9    9.62320   9.623     2
HO OH CT CT 9 0.0 0.66944 3  sHO   sOH   sCT   sCT     9    0.66944   0.669     3
HO OH CT CT 9 0.0 1.04600 1  sHO   sOH   sCT   sCT     9    1.04600   1.046     1
N3 CT CT C3 9 0.0 0.81630 1  sN3   sCT   sCT   sC3     9    0.81630   0.816     1
N3 CT CT C3 9 180.0 3.53925 2  sN3   sCT   sCT   sC3     9    3.53925   3.539     2
N3 CT CT C6 9 180.0 11.02568 1  sN3   sCT   sCT   sC6     9    11.02568  11.026    1
N3 CT CT C6 9 180.0 4.98022 2  sN3   sCT   sCT   sC6     9    4.98022   4.980     2
N3 CT CT C6 9 180.0 0.02845 3  sN3   sCT   sCT   sC6     9    0.02845   0.028     3
N3 CT CT C6 9 0.0 1.76858 4  sN3   sCT   sCT   sC6     9    1.76858   1.769     4
N3 CT CT C6 9 0.0 0.96943 5  sN3   sCT   sCT   sC6     9    0.96943   0.969     5
N3 CT CT C6 9 180.0 0.89009 6  sN3   sCT   sCT   sC6     9    0.89009   0.890     6
N C1 C N 9 180.0 2.69445 1   sN   sC1    sC    sN     9    2.69445   2.694     1
N C1 C N 9 180.0 6.68666 2   sN   sC1    sC    sN     9    6.68666   6.687     2
N C1 C N 9 180.0 1.67111 3   sN   sC1    sC    sN     9    1.67111   1.671     3
N C1 C N 9 0.0 0.31419 4   sN   sC1    sC    sN     9    0.31419   0.314     4
N C5 CT CT 9 180.0 4.37772 1   sN   sC5   sCT   sCT     9    4.37772   4.378     1
N C5 CT CT 9 180.0 0.75730 2   sN   sC5   sCT   sCT     9    0.75730   0.757     2
N C5 CT CT 9 180.0 0.14811 3   sN   sC5   sCT   sCT     9    0.14811   0.148     3
N C5 CT CT 9 0.0 0.41966 4   sN   sC5   sCT   sCT     9    0.41966   0.420     4
N C5 CT CT 9 0.0 0.54308 5   sN   sC5   sCT   sCT     9    0.54308   0.543     5
N C5 CT CT 9 180.0 0.44373 6   sN   sC5   sCT   sCT     9    0.44373   0.444     6
N C7 C N 9 180.0 1.88280 1   sN   sC7    sC    sN     9    1.88280   1.883     1
N C7 C N 9 180.0 6.61072 2   sN   sC7    sC    sN     9    6.61072   6.611     2
N C7 C N 9 180.0 2.30120 3   sN   sC7    sC    sN     9    2.30120   2.301     3
N CT C8 CT 9 0.0 0.25104 1   sN   sCT   sC8   sCT     9    0.25104   0.251     1
N CT C8 CT 9 180.0 2.09200 2   sN   sCT   sC8   sCT     9    2.09200   2.092     2
N CT C8 CT 9 0.0 0.62760 3   sN   sCT   sC8   sCT     9    0.62760   0.628     3
N CT C8 CT 9 180.0 0.27196 4   sN   sCT   sC8   sCT     9    0.27196   0.272     4
N CT C8 O3 9 180.0 0.33472 1   sN   sCT   sC8   sO3     9    0.33472   0.335     1
N CT C8 OH 9 180.0 1.04600 1   sN   sCT   sC8   sOH     9    1.04600   1.046     1
N CT C N 9 360.0 0.82425 1   sN   sCT    sC    sN     9    0.82425   0.824     1
N CT C N 9 180.0 6.04588 2   sN   sCT    sC    sN     9    6.04588   6.046     2
N CT C N 9 180.0 2.00414 3   sN   sCT    sC    sN     9    2.00414   2.004     3
N CT C N 9 360.0 0.07991 4   sN   sCT    sC    sN     9    0.07991   0.080     4
N CT C N 9 360.0 0.01674 5   sN   sCT    sC    sN     9    0.01674   0.017     5
N CT CT C3 9 0.0 0.81630 1   sN   sCT   sCT   sC3     9    0.81630   0.816     1
N CT CT C3 9 180.0 3.53925 2   sN   sCT   sCT   sC3     9    3.53925   3.539     2
N CT CT C5 9 180.0 2.63592 1   sN   sCT   sCT   sC5     9    2.63592   2.636     1
N CT CT C6 9 180.0 12.05410 1   sN   sCT   sCT   sC6     9    12.05410  12.054    1
N CT CT C6 9 180.0 5.06682 2   sN   sCT   sCT   sC6     9    5.06682   5.067     2
N CT CT C6 9 0.0 0.25941 3   sN   sCT   sCT   sC6     9    0.25941   0.259     3
N CT CT C6 9 0.0 1.02508 4   sN   sCT   sCT   sC6     9    1.02508   1.025     4
N CT CT C6 9 0.0 0.54810 5   sN   sCT   sCT   sC6     9    0.54810   0.548     5
N CT CT C6 9 180.0 0.59413 6   sN   sCT   sCT   sC6     9    0.59413   0.594     6
N CT CT C9 9 0.0 0.41840 1   sN   sCT   sCT   sC9     9    0.41840   0.418     1
N CT CT CC 9 180.0 1.67360 1   sN   sCT   sCT   sCC     9    1.67360   1.674     1
N CT CT SH 9 180.0 2.30120 1   sN   sCT   sCT   sSH     9    2.30120   2.301     1
N CT CT SH 9 180.0 2.63592 2   sN   sCT   sCT   sSH     9    2.63592   2.636     2
N CT CT SH 9 180.0 0.25104 3   sN   sCT   sCT   sSH     9    0.25104   0.251     3
N CT CT SH 9 180.0 0.12552 4   sN   sCT   sCT   sSH     9    0.12552   0.126     4
O C OS CT 9 180.0 5.85760 1   sO    sC   sOS   sCT     9    5.85760   5.858     1
O C OS CT 9 180.0 11.29680 2   sO    sC   sOS   sCT     9    11.29680  11.297    2
OH CT CT OH 9 0.0 0.60250 3  sOH   sCT   sCT   sOH     9    0.60250   0.603     3
OH CT CT OH 9 0.0 4.91620 2  sOH   sCT   sCT   sOH     9    4.91620   4.916     2
OH P OS CT 9 0.0 1.04600 3  sOH    sP   sOS   sCT     9    1.04600   1.046     3
OH P OS CT 9 0.0 5.02080 2  sOH    sP   sOS   sCT     9    5.02080   5.021     2
OS CT CT OH 9 0.0 0.60250 3  sOS   sCT   sCT   sOH     9    0.60250   0.603     3
OS CT CT OH 9 0.0 4.91620 2  sOS   sCT   sCT   sOH     9    4.91620   4.916     2
OS CT CT OS 9 0.0 4.91620 2  sOS   sCT   sCT   sOS     9    4.91620   4.916     2
OS CT CT OS 9 0.0 0.60250 3  sOS   sCT   sCT   sOS     9    0.60250   0.603     3
OS CT N* CK 9 0.0 10.46000 1  sOS   sCT   sN*   sCK     9    10.46000  10.460    1
OS CT N* CM 9 0.0 10.46000 1  sOS   sCT   sN*   sCM     9    10.46000  10.460    1
OS P OS CT 9 0.0 5.02080 2  sOS    sP   sOS   sCT     9    5.02080   5.021     2
OS P OS CT 9 0.0 1.04600 3  sOS    sP   sOS   sCT     9    1.04600   1.046     3
N CT CT CA 9 0.0 0.00000 0   sN   sCT   sCT   sCA     9    0.00000   0.000     0
N CT CT C* 9 0.0 0.00000 0   sN   sCT   sCT   sC*     9    0.00000   0.000     0
CT CT C9 S 9 0.0 0.00000 0  sCT   sCT   sC9    sS     9    0.00000   0.000     0
CT CT C9 CT 9 0.0 0.00000 0  sCT   sCT   sC9   sCT     9    0.00000   0.000     0
X C1 N3 X 9 0.0 0.65084 3    X   sC1   sN3     X     9    0.65084   0.651     3
X C5 N X 9 180.0 10.46000 2    X   sC5    sN     X     9    10.46000  10.460    2
X C7 CT X 9 0.0 0.65084 3    X   sC7   sCT     X     9    0.65084   0.651     3
X C7 N3 X 9 0.0 0.65084 3    X   sC7   sN3     X     9    0.65084   0.651     3
X C8 O3 X 9 0.0 0.69873 3    X   sC8   sO3     X     9    0.69873   0.699     3
X C8 OH X 9 0.0 0.69873 3    X   sC8   sOH     X     9    0.69873   0.699     3
X C9 S X 9 0.0 1.39327 3    X   sC9    sS     X     9    1.39327   1.393     3
X CA CA X 9 180.0 15.16700 2    X   sCA   sCA     X     9    15.16700  15.167    2
X CA CB X 9 180.0 14.64400 2    X   sCA   sCB     X     9    14.64400  14.644    2
X CA CM X 9 180.0 10.66920 2    X   sCA   sCM     X     9    10.66920  10.669    2
X CA CN X 9 180.0 15.16700 2    X   sCA   sCN     X     9    15.16700  15.167    2
X CA N2 X 9 180.0 10.04160 2    X   sCA   sN2     X     9    10.04160  10.042    2
X CA NA X 9 180.0 6.27600 2    X   sCA   sNA     X     9    6.27600   6.276     2
X CA NC X 9 180.0 20.08320 2    X   sCA   sNC     X     9    20.08320  20.083    2
X CA OH X 9 180.0 3.76560 2    X   sCA   sOH     X     9    3.76560   3.766     2
X CB CB X 9 180.0 22.80280 2    X   sCB   sCB     X     9    22.80280  22.803    2
X CB CN X 9 180.0 12.55200 2    X   sCB   sCN     X     9    12.55200  12.552    2
X CB NB X 9 180.0 10.66920 2    X   sCB   sNB     X     9    10.66920  10.669    2
X CB NC X 9 180.0 17.36360 2    X   sCB   sNC     X     9    17.36360  17.364    2
X CB N* X 9 180.0 6.90360 2    X   sCB   sN*     X     9    6.90360   6.904     2
X C CA X 9 180.0 15.16700 2    X    sC   sCA     X     9    15.16700  15.167    2
X C CB X 9 180.0 12.55200 2    X    sC   sCB     X     9    12.55200  12.552    2
X C* CB X 9 180.0 7.00820 2    X   sC*   sCB     X     9    7.00820   7.008     2
X CC CV X 9 180.0 21.54760 2    X   sCC   sCV     X     9    21.54760  21.548    2
X CC CW X 9 180.0 22.48900 2    X   sCC   sCW     X     9    22.48900  22.489    2
X C CM X 9 180.0 9.10020 2    X    sC   sCM     X     9    9.10020   9.100     2
X CC NA X 9 180.0 5.85760 2    X   sCC   sNA     X     9    5.85760   5.858     2
X CC NB X 9 180.0 10.04160 2    X   sCC   sNB     X     9    10.04160  10.042    2
X C* CW X 9 180.0 27.30060 2    X   sC*   sCW     X     9    27.30060  27.301    2
X C C X 9 180.0 15.16700 2    X    sC    sC     X     9    15.16700  15.167    2
X CK NB X 9 180.0 41.84000 2    X   sCK   sNB     X     9    41.84000  41.840    2
X CK N* X 9 180.0 7.11280 2    X   sCK   sN*     X     9    7.11280   7.113     2
X CM CM X 9 180.0 27.82360 2    X   sCM   sCM     X     9    27.82360  27.824    2
X CM N* X 9 180.0 7.74040 2    X   sCM   sN*     X     9    7.74040   7.740     2
X CM OS X 9 180.0 4.39320 2    X   sCM   sOS     X     9    4.39320   4.393     2
X C NA X 9 180.0 5.64840 2    X    sC   sNA     X     9    5.64840   5.648     2
X C NC X 9 180.0 16.73600 2    X    sC   sNC     X     9    16.73600  16.736    2
X CN NA X 9 180.0 6.38060 2    X   sCN   sNA     X     9    6.38060   6.381     2
X C N X 9 180.0 10.46000 2    X    sC    sN     X     9    10.46000  10.460    2
X C N* X 9 180.0 6.06680 2    X    sC   sN*     X     9    6.06680   6.067     2
X C OH X 9 180.0 9.62320 2    X    sC   sOH     X     9    9.62320   9.623     2
X C OS X 9 180.0 11.29680 2    X    sC   sOS     X     9    11.29680  11.297    2
X C O X 9 180.0 11.71520 2    X    sC    sO     X     9    11.71520  11.715    2
X C OB X 9 180.0 11.71520 2    X    sC   sOB     X     9    11.71520  11.715    2
X CQ NC X 9 180.0 28.45120 2    X   sCQ   sNC     X     9    28.45120  28.451    2
X CR NA X 9 180.0 9.72780 2    X   sCR   sNA     X     9    9.72780   9.728     2
X CR NB X 9 180.0 20.92000 2    X   sCR   sNB     X     9    20.92000  20.920    2
X CT C8 X 9 0.0 0.64852 3    X   sCT   sC8     X     9    0.64852   0.649     3
X CT C9 X 9 0.0 0.64852 3    X   sCT   sC9     X     9    0.64852   0.649     3
X CT CT X 9 0.0 0.65084 3    X   sCT   sCT     X     9    0.65084   0.651     3
X CT N3 X 9 0.0 0.65084 3    X   sCT   sN3     X     9    0.65084   0.651     3
X CT OH X 9 0.0 0.69733 3    X   sCT   sOH     X     9    0.69733   0.697     3
X CT OS X 9 0.0 1.60387 3    X   sCT   sOS     X     9    1.60387   1.604     3
X CT SH X 9 0.0 1.04600 3    X   sCT   sSH     X     9    1.04600   1.046     3
X CT S X 9 0.0 1.39467 3    X   sCT    sS     X     9    1.39467   1.395     3
X CV NB X 9 180.0 10.04160 2    X   sCV   sNB     X     9    10.04160  10.042    2
X CW NA X 9 180.0 6.27600 2    X   sCW   sNA     X     9    6.27600   6.276     2
X OH P X 9 0.0 1.04600 3    X   sOH    sP     X     9    1.04600   1.046     3
X OS P X 9 0.0 1.04600 3    X   sOS    sP     X     9    1.04600   1.046     3
X C1 N X 9 0.0 0.00000 0    X   sC1    sN     X     9    0.00000   0.000     0
X C C1 X 9 0.0 0.00000 0    X    sC   sC1     X     9    0.00000   0.000     0
X C C9 X 9 0.0 0.00000 0    X    sC   sC9     X     9    0.00000   0.000     0
X C CT X 9 0.0 0.00000 0    X    sC   sCT     X     9    0.00000   0.000     0
X CA CT X 9 0.0 0.00000 0    X   sCA   sCT     X     9    0.00000   0.000     0
X CC CT X 9 0.0 0.00000 0    X   sCC   sCT     X     9    0.00000   0.000     0
X CM CT X 9 0.0 0.00000 0    X   sCM   sCT     X     9    0.00000   0.000     0
X CT N X 9 0.0 0.00000 0    X   sCT    sN     X     9    0.00000   0.000     0
X CT N* X 9 0.0 0.00000 0    X   sCT   sN*     X     9    0.00000   0.000     0
X CT N2 X 9 0.0 0.00000 0    X   sCT   sN2     X     9    0.00000   0.000     0
X C* CT X 9 0.0 0.00000 0    X   sC*   sCT     X     9    0.00000   0.000     0
X C7 N X 9 0.0 0.00000 0    X   sC7    sN     X     9    0.00000   0.000     0
X C C7 X 9 0.0 0.00000 0    X    sC   sC7     X     9    0.00000   0.000     0
X C5 CT X 9 0.0 0.00000 0    X   sC5   sCT     X     9    0.00000   0.000     0
X C6 CT X 9 0.0 0.00000 0    X   sC6   sCT     X     9    0.00000   0.000     0
C C1 N O 4 180.0 4.60240 2   sC   sC1    sN    sO     4    4.60240   4.279     2
C C1 N OB 4 180.0 4.60240 2   sC   sC1    sN   sOB     4    4.60240   4.279     2
C C1 N H 4 180.0 4.60240 2   sC   sC1    sN    sH     4    4.60240   4.279     2
C C1 N HB 4 180.0 4.60240 2   sC   sC1    sN   sHB     4    4.60240   4.279     2
C9 O C OH 4 180.0 43.93200 2  sC9    sO    sC   sOH     4    43.93200  40.840    2
CB CK N* CT 4 180.0 4.18400 2  sCB   sCK   sN*   sCT     4    4.18400   3.890     2
C CM N* CT 4 180.0 4.18400 2   sC   sCM   sN*   sCT     4    4.18400   3.890     2
CT O C OH 4 180.0 43.93200 2  sCT    sO    sC   sOH     4    43.93200  40.840    2
CT CV CC NA 4 180.0 4.60240 2  sCT   sCV   sCC   sNA     4    4.60240   4.279     2
CT CW CC NB 4 180.0 4.60240 2  sCT   sCW   sCC   sNB     4    4.60240   4.279     2
CT CC CW NB 4 180.0 4.60240 2  sCT   sCC   sCW   sNB     4    4.60240   4.279     2
CT CW CC NA 4 180.0 4.60240 2  sCT   sCW   sCC   sNA     4    4.60240   4.279     2
CB CT C* CW 4 180.0 4.60240 2  sCB   sCT   sC*   sCW     4    4.60240   4.279     2
CA CA CA CT 4 180.0 4.60240 2  sCA   sCA   sCA   sCT     4    4.60240   4.279     2
C CM CM CT 4 180.0 4.60240 2   sC   sCM   sCM   sCT     4    4.60240   4.279     2
CM N2 CA NC 4 180.0 4.60240 2  sCM   sN2   sCA   sNC     4    4.60240   4.279     2
CB N2 CA NC 4 180.0 4.60240 2  sCB   sN2   sCA   sNC     4    4.60240   4.279     2
N2 NA CA NC 4 180.0 4.60240 2  sN2   sNA   sCA   sNC     4    4.60240   4.279     2
CA CA C OH 4 180.0 4.60240 2  sCA   sCA    sC   sOH     4    4.60240   4.279     2
CA CA CA OH 4 180.0 4.60240 2  sCA   sCA   sCA   sOH     4    4.60240   4.279     2
H5 O C OH 4 180.0 4.60240 2  sH5    sO    sC   sOH     4    4.60240   4.279     2
H5 O C OS 4 180.0 4.60240 2  sH5    sO    sC   sOS     4    4.60240   4.279     2
CM CT CM HA 4 180.0 4.60240 2  sCM   sCT   sCM   sHA     4    4.60240   4.279     2
Br CA CA CA 4 180.0 4.60240 2  sBr   sCA   sCA   sCA     4    4.60240   4.279     2
CM H4 C O 4 180.0 4.60240 2  sCM   sH4    sC    sO     4    4.60240   4.279     2
C CT N H 4 180.0 4.60240 2   sC   sCT    sN    sH     4    4.60240   4.279     2
C CT N HB 4 180.0 4.60240 2   sC   sCT    sN   sHB     4    4.60240   4.279     2
C CT N O 4 180.0 4.60240 2   sC   sCT    sN    sO     4    4.60240   4.279     2
C C7 N O 4 180.0 4.60240 2   sC   sC7    sN    sO     4    4.60240   4.279     2
C CT N OB 4 180.0 4.60240 2   sC   sCT    sN   sOB     4    4.60240   4.279     2
C C7 N OB 4 180.0 4.60240 2   sC   sC7    sN   sOB     4    4.60240   4.279     2
C C7 N H 4 180.0 4.60240 2   sC   sC7    sN    sH     4    4.60240   4.279     2
C C7 N HB 4 180.0 4.60240 2   sC   sC7    sN   sHB     4    4.60240   4.279     2
C5 CT N O 4 180.0 4.60240 2  sC5   sCT    sN    sO     4    4.60240   4.279     2
C5 CT N OB 4 180.0 4.60240 2  sC5   sCT    sN   sOB     4    4.60240   4.279     2
C5 CT N H 4 180.0 4.60240 2  sC5   sCT    sN    sH     4    4.60240   4.279     2
C5 CT N HB 4 180.0 4.60240 2  sC5   sCT    sN   sHB     4    4.60240   4.279     2
X CT N C1 4 180.0 4.18400 2    X   sCT    sN   sC1     4    4.18400   3.890     2
X CT N C7 4 180.0 4.18400 2    X   sCT    sN   sC7     4    4.18400   3.890     2
X O2 C6 O2 4 180.0 43.93200 2    X   sO2   sC6   sO2     4    43.93200  40.840    2
X O2 C O2 4 180.0 43.93200 2    X   sO2    sC   sO2     4    43.93200  40.840    2
X N2 CA N2 4 180.0 43.93200 2    X   sN2   sCA   sN2     4    43.93200  40.840    2
X CT N CT 4 180.0 4.18400 2    X   sCT    sN   sCT     4    4.18400   3.890     2
X X C O 4 180.0 43.93200 2    X     X    sC    sO     4    43.93200  40.840    2
X X C OB 4 180.0 43.93200 2    X     X    sC   sOB     4    43.93200  40.840    2
X X N H 4 180.0 4.18400 2    X     X    sN    sH     4    4.18400   3.890     2
X X N2 H 4 180.0 4.18400 2    X     X   sN2    sH     4    4.18400   3.890     2
X X NA H 4 180.0 4.18400 2    X     X   sNA    sH     4    4.18400   3.890     2
X X CA HA 4 180.0 4.60240 2    X     X   sCA   sHA     4    4.60240   4.279     2
X X CW H4 4 180.0 4.60240 2    X     X   sCW   sH4     4    4.60240   4.279     2
X X CR H5 4 180.0 4.60240 2    X     X   sCR   sH5     4    4.60240   4.279     2
X X CV H4 4 180.0 4.60240 2    X     X   sCV   sH4     4    4.60240   4.279     2
X X CQ H5 4 180.0 4.60240 2    X     X   sCQ   sH5     4    4.60240   4.279     2
X X CK H5 4 180.0 4.60240 2    X     X   sCK   sH5     4    4.60240   4.279     2
X X CM H4 4 180.0 4.60240 2    X     X   sCM   sH4     4    4.60240   4.279     2
X X CM HA 4 180.0 4.60240 2    X     X   sCM   sHA     4    4.60240   4.279     2
X X CA H4 4 180.0 4.60240 2    X     X   sCA   sH4     4    4.60240   4.279     2
X X CA H5 4 180.0 4.60240 2    X     X   sCA   sH5     4    4.60240   4.279     2
X X C5 O 4 180.0 43.93200 2    X     X   sC5    sO     4    43.93200  40.840    2
C8 CT C N 9 0.0 0.83680 1  sC8   sCT    sC    sN     9    0.83680   0.778     1
C8 CT C N 9 0.0 0.83680 2  sC8   sCT    sC    sN     9    0.83680   0.778     2
C8 CT C N 9 0.0 1.67360 3  sC8   sCT    sC    sN     9    1.67360   1.556     3
C8 CT N C 9 0.0 8.36800 1  sC8   sCT    sN    sC     9    8.36800   7.779     1
C8 CT N C 9 0.0 8.36800 2  sC8   sCT    sN    sC     9    8.36800   7.779     2
C8 CT N C 9 0.0 1.67360 3  sC8   sCT    sN    sC     9    1.67360   1.556     3
C CT C8 O3 9 180.0 4.18400 1   sC   sCT   sC8   sO3     9    4.18400   3.890     1
C CT C8 OH 9 180.0 3.76560 1   sC   sCT   sC8   sOH     9    3.76560   3.501     1
C CT CT C4 9 0.0 2.39074 1   sC   sCT   sCT   sC4     9    2.39074   2.222     1
C CT CT C4 9 180.0 1.49913 2   sC   sCT   sCT   sC4     9    1.49913   1.394     2
C CT CT C4 9 0.0 0.56400 3   sC   sCT   sCT   sC4     9    0.56400   0.524     3
C CT CT C5 9 0.0 0.71421 1   sC   sCT   sCT   sC5     9    0.71421   0.664     1
C CT CT C5 9 180.0 2.49241 2   sC   sCT   sCT   sC5     9    2.49241   2.317     2
C CT CT C5 9 0.0 0.49580 3   sC   sCT   sCT   sC5     9    0.49580   0.461     3
C CT CT C5 9 180.0 1.74556 4   sC   sCT   sCT   sC5     9    1.74556   1.623     4
C CT CT C5 9 0.0 0.43597 5   sC   sCT   sCT   sC5     9    0.43597   0.405     5
C CT CT C5 9 180.0 0.42142 6   sC   sCT   sCT   sC5     9    0.42142   0.392     6
C CT CT C* 9 0.0 1.21336 1   sC   sCT   sCT   sC*     9    1.21336   1.128     1
C CT CT C9 9 0.0 1.25520 1   sC   sCT   sCT   sC9     9    1.25520   1.167     1
C CT CT CA 9 0.0 2.17568 1   sC   sCT   sCT   sCA     9    2.17568   2.023     1
C CT CT CC 9 0.0 2.92880 1   sC   sCT   sCT   sCC     9    2.92880   2.723     1
C CT CT SH 9 180.0 0.66944 1   sC   sCT   sCT   sSH     9    0.66944   0.622     1
Cl CT CT Cl 9 180.0 1.88280 1  sCl   sCT   sCT   sCl     9    1.88280   1.750     1
CM CM C O 9 180.0 9.10020 2  sCM   sCM    sC    sO     9    9.10020   8.460     2
CM CM C O 9 0.0 1.25520 3  sCM   sCM    sC    sO     9    1.25520   1.167     3
C N C1 C 9 0.0 0.35267 1   sC    sN   sC1    sC     9    0.35267   0.328     1
C N C1 C 9 0.0 1.59541 2   sC    sN   sC1    sC     9    1.59541   1.483     2
C N C1 C 9 180.0 0.08381 3   sC    sN   sC1    sC     9    0.08381   0.078     3
C N C1 C 9 0.0 0.32396 4   sC    sN   sC1    sC     9    0.32396   0.301     4
C N C7 C 9 0.0 1.12968 2   sC    sN   sC7    sC     9    1.12968   1.050     2
C N C7 C 9 0.0 1.75728 3   sC    sN   sC7    sC     9    1.75728   1.634     3
C N CT C 9 180.0 0.14226 1   sC    sN   sCT    sC     9    0.14226   0.132     1
C N CT C 9 0.0 1.40164 2   sC    sN   sCT    sC     9    1.40164   1.303     2
C N CT C 9 0.0 2.27610 3   sC    sN   sCT    sC     9    2.27610   2.116     3
C N CT C 9 0.0 0.33472 4   sC    sN   sCT    sC     9    0.33472   0.311     4
CT C7 C N 9 0.0 0.83680 1  sCT   sC7    sC    sN     9    0.83680   0.778     1
CT C7 C N 9 0.0 0.83680 2  sCT   sC7    sC    sN     9    0.83680   0.778     2
CT C7 C N 9 0.0 1.67360 3  sCT   sC7    sC    sN     9    1.67360   1.556     3
CT C7 N C 9 0.0 8.36800 1  sCT   sC7    sN    sC     9    8.36800   7.779     1
CT C7 N C 9 0.0 8.36800 2  sCT   sC7    sN    sC     9    8.36800   7.779     2
CT C7 N C 9 0.0 1.67360 3  sCT   sC7    sN    sC     9    1.67360   1.556     3
CT C9 C O2 9 180.0 2.51040 2  sCT   sC9    sC   sO2     9    2.51040   2.334     2
CT C9 C O 9 180.0 2.51040 2  sCT   sC9    sC    sO     9    2.51040   2.334     2
CT C9 C OB 9 180.0 2.51040 2  sCT   sC9    sC   sOB     9    2.51040   2.334     2
CT CM CM CT 9 180.0 27.82360 2  sCT   sCM   sCM   sCT     9    27.82360  25.865    2
CT CM CM CT 9 180.0 7.94960 1  sCT   sCM   sCM   sCT     9    7.94960   7.390     1
CT CT C4 CT 9 0.0 0.62760 3  sCT   sCT   sC4   sCT     9    0.62760   0.583     3
CT CT C5 O 9 180.0 4.18400 1  sCT   sCT   sC5    sO     9    4.18400   3.890     1
CT CT C6 O2 9 180.0 0.77822 4  sCT   sCT   sC6   sO2     9    0.77822   0.723     4
CT CT C6 O2 9 180.0 1.48114 6  sCT   sCT   sC6   sO2     9    1.48114   1.377     6
CT CT C6 O2 9 180.0 3.65263 2  sCT   sCT   sC6   sO2     9    3.65263   3.396     2
CT CT C* CW 9 0.0 5.02080 1  sCT   sCT   sC*   sCW     9    5.02080   4.667     1
CT CT C N 9 0.0 0.83680 1  sCT   sCT    sC    sN     9    0.83680   0.778     1
CT CT C N 9 0.0 0.83680 2  sCT   sCT    sC    sN     9    0.83680   0.778     2
CT CT C N 9 0.0 1.67360 3  sCT   sCT    sC    sN     9    1.67360   1.556     3
CT CT CT C3 9 0.0 0.62760 3  sCT   sCT   sCT   sC3     9    0.62760   0.583     3
CT CT CT C7 9 0.0 0.75312 3  sCT   sCT   sCT   sC7     9    0.75312   0.700     3
CT CT CT C7 9 180.0 0.83680 1  sCT   sCT   sCT   sC7     9    0.83680   0.778     1
CT CT CT C7 9 180.0 1.04600 2  sCT   sCT   sCT   sC7     9    1.04600   0.972     2
CT CT CT CT 9 0.0 0.62760 3  sCT   sCT   sCT   sCT     9    0.62760   0.583     3
CT CT N C 9 0.0 1.67360 3  sCT   sCT    sN    sC     9    1.67360   1.556     3
CT CT N C 9 0.0 8.36800 1  sCT   sCT    sN    sC     9    8.36800   7.779     1
CT CT N C 9 0.0 8.36800 2  sCT   sCT    sN    sC     9    8.36800   7.779     2
CT CT OS C 9 0.0 1.60247 3  sCT   sCT   sOS    sC     9    1.60247   1.490     3
CT CT OS C 9 180.0 3.34720 1  sCT   sCT   sOS    sC     9    3.34720   3.112     1
CT CT OS CT 9 0.0 1.60247 3  sCT   sCT   sOS   sCT     9    1.60247   1.490     3
CT CT OS CT 9 180.0 0.41840 2  sCT   sCT   sOS   sCT     9    0.41840   0.389     2
CT CT SH HS 9 0.0 0.83680 3  sCT   sCT   sSH   sHS     9    0.83680   0.778     3
CT CT SH HS 9 0.0 2.09200 2  sCT   sCT   sSH   sHS     9    2.09200   1.945     2
CT OS CT N* 9 0.0 1.60247 3  sCT   sOS   sCT   sN*     9    1.60247   1.490     3
CT OS CT N* 9 0.0 2.71960 2  sCT   sOS   sCT   sN*     9    2.71960   2.528     2
CT OS CT OS 9 0.0 0.41840 3  sCT   sOS   sCT   sOS     9    0.41840   0.389     3
CT OS CT OS 9 180.0 3.55640 2  sCT   sOS   sCT   sOS     9    3.55640   3.306     2
CT OS CT OS 9 180.0 5.64840 1  sCT   sOS   sCT   sOS     9    5.64840   5.251     1
CT S S CT 9 0.0 14.64400 2  sCT    sS    sS   sCT     9    14.64400  13.613    2
CT S S CT 9 0.0 2.51040 3  sCT    sS    sS   sCT     9    2.51040   2.334     3
F CT CT F 9 180.0 5.02080 1   sF   sCT   sCT    sF     9    5.02080   4.667     1
H1 C1 C O 9 0.0 3.34720 1  sH1   sC1    sC    sO     9    3.34720   3.112     1
H1 C1 C O 9 180.0 0.33472 3  sH1   sC1    sC    sO     9    0.33472   0.311     3
H1 C7 C O 9 0.0 3.34720 1  sH1   sC7    sC    sO     9    3.34720   3.112     1
H1 C7 C O 9 180.0 0.33472 3  sH1   sC7    sC    sO     9    0.33472   0.311     3
H1 CT C O 9 0.0 3.34720 1  sH1   sCT    sC    sO     9    3.34720   3.112     1
H1 CT C O 9 180.0 0.33472 3  sH1   sCT    sC    sO     9    0.33472   0.311     3
H1 C1 C OB 9 0.0 3.34720 1  sH1   sC1    sC   sOB     9    3.34720   3.112     1
H1 C1 C OB 9 180.0 0.33472 3  sH1   sC1    sC   sOB     9    0.33472   0.311     3
H1 C7 C OB 9 0.0 3.34720 1  sH1   sC7    sC   sOB     9    3.34720   3.112     1
H1 C7 C OB 9 180.0 0.33472 3  sH1   sC7    sC   sOB     9    0.33472   0.311     3
H1 CT C OB 9 0.0 3.34720 1  sH1   sCT    sC   sOB     9    3.34720   3.112     1
H1 CT C OB 9 180.0 0.33472 3  sH1   sCT    sC   sOB     9    0.33472   0.311     3
H1 CT CT Br 9 0.0 2.30120 1  sH1   sCT   sCT   sBr     9    2.30120   2.139     1
H1 CT CT Cl 9 0.0 1.04600 1  sH1   sCT   sCT   sCl     9    1.04600   0.972     1
H1 CT CT F 9 0.0 0.79496 1  sH1   sCT   sCT    sF     9    0.79496   0.739     1
H1 CT CT OH 9 0.0 1.04600 1  sH1   sCT   sCT   sOH     9    1.04600   0.972     1
H1 CT CT OS 9 0.0 1.04600 1  sH1   sCT   sCT   sOS     9    1.04600   0.972     1
HC C3 CT CT 9 0.0 0.66944 3  sHC   sC3   sCT   sCT     9    0.66944   0.622     3
HC C4 CT CT 9 0.0 0.66944 3  sHC   sC4   sCT   sCT     9    0.66944   0.622     3
HC C4 CT HC 9 0.0 0.62760 3  sHC   sC4   sCT   sHC     9    0.62760   0.583     3
HC CT C3 HC 9 0.0 0.62760 3  sHC   sCT   sC3   sHC     9    0.62760   0.583     3
HC CT C4 CT 9 0.0 0.66944 3  sHC   sCT   sC4   sCT     9    0.66944   0.622     3
HC CT C5 O 9 0.0 3.34720 1  sHC   sCT   sC5    sO     9    3.34720   3.112     1
HC CT C5 O 9 180.0 0.33472 3  sHC   sCT   sC5    sO     9    0.33472   0.311     3
HC CT CM CM 9 0.0 4.81160 1  sHC   sCT   sCM   sCM     9    4.81160   4.473     1
HC CT CM CM 9 180.0 1.58992 3  sHC   sCT   sCM   sCM     9    1.58992   1.478     3
HC CT C O 9 0.0 3.34720 1  sHC   sCT    sC    sO     9    3.34720   3.112     1
HC CT C O 9 180.0 0.33472 3  sHC   sCT    sC    sO     9    0.33472   0.311     3
HC CT C OB 9 0.0 3.34720 1  sHC   sCT    sC   sOB     9    3.34720   3.112     1
HC CT C OB 9 180.0 0.33472 3  sHC   sCT    sC   sOB     9    0.33472   0.311     3
HC CT CT Br 9 0.0 2.30120 1  sHC   sCT   sCT   sBr     9    2.30120   2.139     1
HC CT CT C3 9 0.0 0.66944 3  sHC   sCT   sCT   sC3     9    0.66944   0.622     3
HC CT CT C4 9 0.0 0.66944 3  sHC   sCT   sCT   sC4     9    0.66944   0.622     3
HC CT CT C7 9 0.0 0.66944 3  sHC   sCT   sCT   sC7     9    0.66944   0.622     3
HC CT CT Cl 9 0.0 1.04600 1  sHC   sCT   sCT   sCl     9    1.04600   0.972     1
HC CT CT CT 9 0.0 0.66944 3  sHC   sCT   sCT   sCT     9    0.66944   0.622     3
HC CT CT F 9 0.0 0.79496 1  sHC   sCT   sCT    sF     9    0.79496   0.739     1
HC CT CT HC 9 0.0 0.62760 3  sHC   sCT   sCT   sHC     9    0.62760   0.583     3
HC CT CT OH 9 0.0 1.04600 1  sHC   sCT   sCT   sOH     9    1.04600   0.972     1
HC CT CT OS 9 0.0 1.04600 1  sHC   sCT   sCT   sOS     9    1.04600   0.972     1
H N C5 O 9 0.0 8.36800 1   sH    sN   sC5    sO     9    8.36800   7.779     1
H N C5 O 9 180.0 10.46000 2   sH    sN   sC5    sO     9    10.46000  9.724     2
H N C O 9 0.0 8.36800 1   sH    sN    sC    sO     9    8.36800   7.779     1
H N C O 9 180.0 10.46000 2   sH    sN    sC    sO     9    10.46000  9.724     2
HB N C OB 9 0.0 8.36800 1  sHB    sN    sC   sOB     9    8.36800   7.779     1
HB N C OB 9 180.0 10.46000 2  sHB    sN    sC   sOB     9    10.46000  9.724     2
HO O3 C8 CT 9 0.0 0.35982 1  sHO   sO3   sC8   sCT     9    0.35982   0.334     1
HO O3 C8 CT 9 0.0 0.41840 3  sHO   sO3   sC8   sCT     9    0.41840   0.389     3
HO O3 C8 CT 9 180.0 0.68199 2  sHO   sO3   sC8   sCT     9    0.68199   0.634     2
HO O3 C8 H1 9 0.0 0.41840 3  sHO   sO3   sC8   sH1     9    0.41840   0.389     3
HO OH C8 CT 9 0.0 0.25104 2  sHO   sOH   sC8   sCT     9    0.25104   0.233     2
HO OH C8 CT 9 0.0 0.83680 3  sHO   sOH   sC8   sCT     9    0.83680   0.778     3
HO OH C8 CT 9 0.0 3.13800 1  sHO   sOH   sC8   sCT     9    3.13800   2.917     1
HO OH C O 9 0.0 7.94960 1  sHO   sOH    sC    sO     9    7.94960   7.390     1
HO OH C O 9 180.0 9.62320 2  sHO   sOH    sC    sO     9    9.62320   8.946     2
HO OH CT CT 9 0.0 0.66944 3  sHO   sOH   sCT   sCT     9    0.66944   0.622     3
HO OH CT CT 9 0.0 1.04600 1  sHO   sOH   sCT   sCT     9    1.04600   0.972     1
N3 CT CT C3 9 0.0 0.81630 1  sN3   sCT   sCT   sC3     9    0.81630   0.759     1
N3 CT CT C3 9 180.0 3.53925 2  sN3   sCT   sCT   sC3     9    3.53925   3.290     2
N3 CT CT C6 9 180.0 11.02568 1  sN3   sCT   sCT   sC6     9    11.02568  10.250    1
N3 CT CT C6 9 180.0 4.98022 2  sN3   sCT   sCT   sC6     9    4.98022   4.630     2
N3 CT CT C6 9 180.0 0.02845 3  sN3   sCT   sCT   sC6     9    0.02845   0.026     3
N3 CT CT C6 9 0.0 1.76858 4  sN3   sCT   sCT   sC6     9    1.76858   1.644     4
N3 CT CT C6 9 0.0 0.96943 5  sN3   sCT   sCT   sC6     9    0.96943   0.901     5
N3 CT CT C6 9 180.0 0.89009 6  sN3   sCT   sCT   sC6     9    0.89009   0.827     6
N C1 C N 9 180.0 2.69445 1   sN   sC1    sC    sN     9    2.69445   2.505     1
N C1 C N 9 180.0 6.68666 2   sN   sC1    sC    sN     9    6.68666   6.216     2
N C1 C N 9 180.0 1.67111 3   sN   sC1    sC    sN     9    1.67111   1.554     3
N C1 C N 9 0.0 0.31419 4   sN   sC1    sC    sN     9    0.31419   0.292     4
N C5 CT CT 9 180.0 4.37772 1   sN   sC5   sCT   sCT     9    4.37772   4.070     1
N C5 CT CT 9 180.0 0.75730 2   sN   sC5   sCT   sCT     9    0.75730   0.704     2
N C5 CT CT 9 180.0 0.14811 3   sN   sC5   sCT   sCT     9    0.14811   0.138     3
N C5 CT CT 9 0.0 0.41966 4   sN   sC5   sCT   sCT     9    0.41966   0.390     4
N C5 CT CT 9 0.0 0.54308 5   sN   sC5   sCT   sCT     9    0.54308   0.505     5
N C5 CT CT 9 180.0 0.44373 6   sN   sC5   sCT   sCT     9    0.44373   0.413     6
N C7 C N 9 180.0 1.88280 1   sN   sC7    sC    sN     9    1.88280   1.750     1
N C7 C N 9 180.0 6.61072 2   sN   sC7    sC    sN     9    6.61072   6.145     2
N C7 C N 9 180.0 2.30120 3   sN   sC7    sC    sN     9    2.30120   2.139     3
N CT C8 CT 9 0.0 0.25104 1   sN   sCT   sC8   sCT     9    0.25104   0.233     1
N CT C8 CT 9 180.0 2.09200 2   sN   sCT   sC8   sCT     9    2.09200   1.945     2
N CT C8 CT 9 0.0 0.62760 3   sN   sCT   sC8   sCT     9    0.62760   0.583     3
N CT C8 CT 9 180.0 0.27196 4   sN   sCT   sC8   sCT     9    0.27196   0.253     4
N CT C8 O3 9 180.0 0.33472 1   sN   sCT   sC8   sO3     9    0.33472   0.311     1
N CT C8 OH 9 180.0 1.04600 1   sN   sCT   sC8   sOH     9    1.04600   0.972     1
N CT C N 9 360.0 0.82425 1   sN   sCT    sC    sN     9    0.82425   0.766     1
N CT C N 9 180.0 6.04588 2   sN   sCT    sC    sN     9    6.04588   5.620     2
N CT C N 9 180.0 2.00414 3   sN   sCT    sC    sN     9    2.00414   1.863     3
N CT C N 9 360.0 0.07991 4   sN   sCT    sC    sN     9    0.07991   0.074     4
N CT C N 9 360.0 0.01674 5   sN   sCT    sC    sN     9    0.01674   0.016     5
N CT CT C3 9 0.0 0.81630 1   sN   sCT   sCT   sC3     9    0.81630   0.759     1
N CT CT C3 9 180.0 3.53925 2   sN   sCT   sCT   sC3     9    3.53925   3.290     2
N CT CT C5 9 180.0 2.63592 1   sN   sCT   sCT   sC5     9    2.63592   2.450     1
N CT CT C6 9 180.0 12.05410 1   sN   sCT   sCT   sC6     9    12.05410  11.206    1
N CT CT C6 9 180.0 5.06682 2   sN   sCT   sCT   sC6     9    5.06682   4.710     2
N CT CT C6 9 0.0 0.25941 3   sN   sCT   sCT   sC6     9    0.25941   0.241     3
N CT CT C6 9 0.0 1.02508 4   sN   sCT   sCT   sC6     9    1.02508   0.953     4
N CT CT C6 9 0.0 0.54810 5   sN   sCT   sCT   sC6     9    0.54810   0.510     5
N CT CT C6 9 180.0 0.59413 6   sN   sCT   sCT   sC6     9    0.59413   0.552     6
N CT CT C9 9 0.0 0.41840 1   sN   sCT   sCT   sC9     9    0.41840   0.389     1
N CT CT CC 9 180.0 1.67360 1   sN   sCT   sCT   sCC     9    1.67360   1.556     1
N CT CT SH 9 180.0 2.30120 1   sN   sCT   sCT   sSH     9    2.30120   2.139     1
N CT CT SH 9 180.0 2.63592 2   sN   sCT   sCT   sSH     9    2.63592   2.450     2
N CT CT SH 9 180.0 0.25104 3   sN   sCT   sCT   sSH     9    0.25104   0.233     3
N CT CT SH 9 180.0 0.12552 4   sN   sCT   sCT   sSH     9    0.12552   0.117     4
O C OS CT 9 180.0 5.85760 1   sO    sC   sOS   sCT     9    5.85760   5.445     1
O C OS CT 9 180.0 11.29680 2   sO    sC   sOS   sCT     9    11.29680  10.502    2
OH CT CT OH 9 0.0 0.60250 3  sOH   sCT   sCT   sOH     9    0.60250   0.560     3
OH CT CT OH 9 0.0 4.91620 2  sOH   sCT   sCT   sOH     9    4.91620   4.570     2
OH P OS CT 9 0.0 1.04600 3  sOH    sP   sOS   sCT     9    1.04600   0.972     3
OH P OS CT 9 0.0 5.02080 2  sOH    sP   sOS   sCT     9    5.02080   4.667     2
OS CT CT OH 9 0.0 0.60250 3  sOS   sCT   sCT   sOH     9    0.60250   0.560     3
OS CT CT OH 9 0.0 4.91620 2  sOS   sCT   sCT   sOH     9    4.91620   4.570     2
OS CT CT OS 9 0.0 4.91620 2  sOS   sCT   sCT   sOS     9    4.91620   4.570     2
OS CT CT OS 9 0.0 0.60250 3  sOS   sCT   sCT   sOS     9    0.60250   0.560     3
OS CT N* CK 9 0.0 10.46000 1  sOS   sCT   sN*   sCK     9    10.46000  9.724     1
OS CT N* CM 9 0.0 10.46000 1  sOS   sCT   sN*   sCM     9    10.46000  9.724     1
OS P OS CT 9 0.0 5.02080 2  sOS    sP   sOS   sCT     9    5.02080   4.667     2
OS P OS CT 9 0.0 1.04600 3  sOS    sP   sOS   sCT     9    1.04600   0.972     3
N CT CT CA 9 0.0 0.00000 0   sN   sCT   sCT   sCA     9    0.00000   0.000     0
N CT CT C* 9 0.0 0.00000 0   sN   sCT   sCT   sC*     9    0.00000   0.000     0
CT CT C9 S 9 0.0 0.00000 0  sCT   sCT   sC9    sS     9    0.00000   0.000     0
CT CT C9 CT 9 0.0 0.00000 0  sCT   sCT   sC9   sCT     9    0.00000   0.000     0
X C1 N3 X 9 0.0 0.65084 3    X   sC1   sN3     X     9    0.65084   0.605     3
X C5 N X 9 180.0 10.46000 2    X   sC5    sN     X     9    10.46000  9.724     2
X C7 CT X 9 0.0 0.65084 3    X   sC7   sCT     X     9    0.65084   0.605     3
X C7 N3 X 9 0.0 0.65084 3    X   sC7   sN3     X     9    0.65084   0.605     3
X C8 O3 X 9 0.0 0.69873 3    X   sC8   sO3     X     9    0.69873   0.650     3
X C8 OH X 9 0.0 0.69873 3    X   sC8   sOH     X     9    0.69873   0.650     3
X C9 S X 9 0.0 1.39327 3    X   sC9    sS     X     9    1.39327   1.295     3
X CA CA X 9 180.0 15.16700 2    X   sCA   sCA     X     9    15.16700  14.100    2
X CA CB X 9 180.0 14.64400 2    X   sCA   sCB     X     9    14.64400  13.613    2
X CA CM X 9 180.0 10.66920 2    X   sCA   sCM     X     9    10.66920  9.918     2
X CA CN X 9 180.0 15.16700 2    X   sCA   sCN     X     9    15.16700  14.100    2
X CA N2 X 9 180.0 10.04160 2    X   sCA   sN2     X     9    10.04160  9.335     2
X CA NA X 9 180.0 6.27600 2    X   sCA   sNA     X     9    6.27600   5.834     2
X CA NC X 9 180.0 20.08320 2    X   sCA   sNC     X     9    20.08320  18.670    2
X CA OH X 9 180.0 3.76560 2    X   sCA   sOH     X     9    3.76560   3.501     2
X CB CB X 9 180.0 22.80280 2    X   sCB   sCB     X     9    22.80280  21.198    2
X CB CN X 9 180.0 12.55200 2    X   sCB   sCN     X     9    12.55200  11.669    2
X CB NB X 9 180.0 10.66920 2    X   sCB   sNB     X     9    10.66920  9.918     2
X CB NC X 9 180.0 17.36360 2    X   sCB   sNC     X     9    17.36360  16.142    2
X CB N* X 9 180.0 6.90360 2    X   sCB   sN*     X     9    6.90360   6.418     2
X C CA X 9 180.0 15.16700 2    X    sC   sCA     X     9    15.16700  14.100    2
X C CB X 9 180.0 12.55200 2    X    sC   sCB     X     9    12.55200  11.669    2
X C* CB X 9 180.0 7.00820 2    X   sC*   sCB     X     9    7.00820   6.515     2
X CC CV X 9 180.0 21.54760 2    X   sCC   sCV     X     9    21.54760  20.031    2
X CC CW X 9 180.0 22.48900 2    X   sCC   sCW     X     9    22.48900  20.906    2
X C CM X 9 180.0 9.10020 2    X    sC   sCM     X     9    9.10020   8.460     2
X CC NA X 9 180.0 5.85760 2    X   sCC   sNA     X     9    5.85760   5.445     2
X CC NB X 9 180.0 10.04160 2    X   sCC   sNB     X     9    10.04160  9.335     2
X C* CW X 9 180.0 27.30060 2    X   sC*   sCW     X     9    27.30060  25.379    2
X C C X 9 180.0 15.16700 2    X    sC    sC     X     9    15.16700  14.100    2
X CK NB X 9 180.0 41.84000 2    X   sCK   sNB     X     9    41.84000  38.895    2
X CK N* X 9 180.0 7.11280 2    X   sCK   sN*     X     9    7.11280   6.612     2
X CM CM X 9 180.0 27.82360 2    X   sCM   sCM     X     9    27.82360  25.865    2
X CM N* X 9 180.0 7.74040 2    X   sCM   sN*     X     9    7.74040   7.196     2
X CM OS X 9 180.0 4.39320 2    X   sCM   sOS     X     9    4.39320   4.084     2
X C NA X 9 180.0 5.64840 2    X    sC   sNA     X     9    5.64840   5.251     2
X C NC X 9 180.0 16.73600 2    X    sC   sNC     X     9    16.73600  15.558    2
X CN NA X 9 180.0 6.38060 2    X   sCN   sNA     X     9    6.38060   5.932     2
X C N X 9 180.0 10.46000 2    X    sC    sN     X     9    10.46000  9.724     2
X C N* X 9 180.0 6.06680 2    X    sC   sN*     X     9    6.06680   5.640     2
X C OH X 9 180.0 9.62320 2    X    sC   sOH     X     9    9.62320   8.946     2
X C OS X 9 180.0 11.29680 2    X    sC   sOS     X     9    11.29680  10.502    2
X C O X 9 180.0 11.71520 2    X    sC    sO     X     9    11.71520  10.891    2
X C OB X 9 180.0 11.71520 2    X    sC   sOB     X     9    11.71520  10.891    2
X CQ NC X 9 180.0 28.45120 2    X   sCQ   sNC     X     9    28.45120  26.449    2
X CR NA X 9 180.0 9.72780 2    X   sCR   sNA     X     9    9.72780   9.043     2
X CR NB X 9 180.0 20.92000 2    X   sCR   sNB     X     9    20.92000  19.448    2
X CT C8 X 9 0.0 0.64852 3    X   sCT   sC8     X     9    0.64852   0.603     3
X CT C9 X 9 0.0 0.64852 3    X   sCT   sC9     X     9    0.64852   0.603     3
X CT CT X 9 0.0 0.65084 3    X   sCT   sCT     X     9    0.65084   0.605     3
X CT N3 X 9 0.0 0.65084 3    X   sCT   sN3     X     9    0.65084   0.605     3
X CT OH X 9 0.0 0.69733 3    X   sCT   sOH     X     9    0.69733   0.648     3
X CT OS X 9 0.0 1.60387 3    X   sCT   sOS     X     9    1.60387   1.491     3
X CT SH X 9 0.0 1.04600 3    X   sCT   sSH     X     9    1.04600   0.972     3
X CT S X 9 0.0 1.39467 3    X   sCT    sS     X     9    1.39467   1.297     3
X CV NB X 9 180.0 10.04160 2    X   sCV   sNB     X     9    10.04160  9.335     2
X CW NA X 9 180.0 6.27600 2    X   sCW   sNA     X     9    6.27600   5.834     2
X OH P X 9 0.0 1.04600 3    X   sOH    sP     X     9    1.04600   0.972     3
X OS P X 9 0.0 1.04600 3    X   sOS    sP     X     9    1.04600   0.972     3
X C1 N X 9 0.0 0.00000 0    X   sC1    sN     X     9    0.00000   0.000     0
X C C1 X 9 0.0 0.00000 0    X    sC   sC1     X     9    0.00000   0.000     0
X C C9 X 9 0.0 0.00000 0    X    sC   sC9     X     9    0.00000   0.000     0
X C CT X 9 0.0 0.00000 0    X    sC   sCT     X     9    0.00000   0.000     0
X CA CT X 9 0.0 0.00000 0    X   sCA   sCT     X     9    0.00000   0.000     0
X CC CT X 9 0.0 0.00000 0    X   sCC   sCT     X     9    0.00000   0.000     0
X CM CT X 9 0.0 0.00000 0    X   sCM   sCT     X     9    0.00000   0.000     0
X CT N X 9 0.0 0.00000 0    X   sCT    sN     X     9    0.00000   0.000     0
X CT N* X 9 0.0 0.00000 0    X   sCT   sN*     X     9    0.00000   0.000     0
X CT N2 X 9 0.0 0.00000 0    X   sCT   sN2     X     9    0.00000   0.000     0
X C* CT X 9 0.0 0.00000 0    X   sC*   sCT     X     9    0.00000   0.000     0
X C7 N X 9 0.0 0.00000 0    X   sC7    sN     X     9    0.00000   0.000     0
X C C7 X 9 0.0 0.00000 0    X    sC   sC7     X     9    0.00000   0.000     0
X C5 CT X 9 0.0 0.00000 0    X   sC5   sCT     X     9    0.00000   0.000     0
X C6 CT X 9 0.0 0.00000 0    X   sC6   sCT     X     9    0.00000   0.000     0
C C1 N O 4 180.0 4.60240 2   sC   sC1    sN    sO     4    4.60240   3.977     2
C C1 N OB 4 180.0 4.60240 2   sC   sC1    sN   sOB     4    4.60240   3.977     2
C C1 N H 4 180.0 4.60240 2   sC   sC1    sN    sH     4    4.60240   3.977     2
C C1 N HB 4 180.0 4.60240 2   sC   sC1    sN   sHB     4    4.60240   3.977     2
C9 O C OH 4 180.0 43.93200 2  sC9    sO    sC   sOH     4    43.93200  37.966    2
CB CK N* CT 4 180.0 4.18400 2  sCB   sCK   sN*   sCT     4    4.18400   3.616     2
C CM N* CT 4 180.0 4.18400 2   sC   sCM   sN*   sCT     4    4.18400   3.616     2
CT O C OH 4 180.0 43.93200 2  sCT    sO    sC   sOH     4    43.93200  37.966    2
CT CV CC NA 4 180.0 4.60240 2  sCT   sCV   sCC   sNA     4    4.60240   3.977     2
CT CW CC NB 4 180.0 4.60240 2  sCT   sCW   sCC   sNB     4    4.60240   3.977     2
CT CC CW NB 4 180.0 4.60240 2  sCT   sCC   sCW   sNB     4    4.60240   3.977     2
CT CW CC NA 4 180.0 4.60240 2  sCT   sCW   sCC   sNA     4    4.60240   3.977     2
CB CT C* CW 4 180.0 4.60240 2  sCB   sCT   sC*   sCW     4    4.60240   3.977     2
CA CA CA CT 4 180.0 4.60240 2  sCA   sCA   sCA   sCT     4    4.60240   3.977     2
C CM CM CT 4 180.0 4.60240 2   sC   sCM   sCM   sCT     4    4.60240   3.977     2
CM N2 CA NC 4 180.0 4.60240 2  sCM   sN2   sCA   sNC     4    4.60240   3.977     2
CB N2 CA NC 4 180.0 4.60240 2  sCB   sN2   sCA   sNC     4    4.60240   3.977     2
N2 NA CA NC 4 180.0 4.60240 2  sN2   sNA   sCA   sNC     4    4.60240   3.977     2
CA CA C OH 4 180.0 4.60240 2  sCA   sCA    sC   sOH     4    4.60240   3.977     2
CA CA CA OH 4 180.0 4.60240 2  sCA   sCA   sCA   sOH     4    4.60240   3.977     2
H5 O C OH 4 180.0 4.60240 2  sH5    sO    sC   sOH     4    4.60240   3.977     2
H5 O C OS 4 180.0 4.60240 2  sH5    sO    sC   sOS     4    4.60240   3.977     2
CM CT CM HA 4 180.0 4.60240 2  sCM   sCT   sCM   sHA     4    4.60240   3.977     2
Br CA CA CA 4 180.0 4.60240 2  sBr   sCA   sCA   sCA     4    4.60240   3.977     2
CM H4 C O 4 180.0 4.60240 2  sCM   sH4    sC    sO     4    4.60240   3.977     2
C CT N H 4 180.0 4.60240 2   sC   sCT    sN    sH     4    4.60240   3.977     2
C CT N HB 4 180.0 4.60240 2   sC   sCT    sN   sHB     4    4.60240   3.977     2
C CT N O 4 180.0 4.60240 2   sC   sCT    sN    sO     4    4.60240   3.977     2
C C7 N O 4 180.0 4.60240 2   sC   sC7    sN    sO     4    4.60240   3.977     2
C CT N OB 4 180.0 4.60240 2   sC   sCT    sN   sOB     4    4.60240   3.977     2
C C7 N OB 4 180.0 4.60240 2   sC   sC7    sN   sOB     4    4.60240   3.977     2
C C7 N H 4 180.0 4.60240 2   sC   sC7    sN    sH     4    4.60240   3.977     2
C C7 N HB 4 180.0 4.60240 2   sC   sC7    sN   sHB     4    4.60240   3.977     2
C5 CT N O 4 180.0 4.60240 2  sC5   sCT    sN    sO     4    4.60240   3.977     2
C5 CT N OB 4 180.0 4.60240 2  sC5   sCT    sN   sOB     4    4.60240   3.977     2
C5 CT N H 4 180.0 4.60240 2  sC5   sCT    sN    sH     4    4.60240   3.977     2
C5 CT N HB 4 180.0 4.60240 2  sC5   sCT    sN   sHB     4    4.60240   3.977     2
X CT N C1 4 180.0 4.18400 2    X   sCT    sN   sC1     4    4.18400   3.616     2
X CT N C7 4 180.0 4.18400 2    X   sCT    sN   sC7     4    4.18400   3.616     2
X O2 C6 O2 4 180.0 43.93200 2    X   sO2   sC6   sO2     4    43.93200  37.966    2
X O2 C O2 4 180.0 43.93200 2    X   sO2    sC   sO2     4    43.93200  37.966    2
X N2 CA N2 4 180.0 43.93200 2    X   sN2   sCA   sN2     4    43.93200  37.966    2
X CT N CT 4 180.0 4.18400 2    X   sCT    sN   sCT     4    4.18400   3.616     2
X X C O 4 180.0 43.93200 2    X     X    sC    sO     4    43.93200  37.966    2
X X C OB 4 180.0 43.93200 2    X     X    sC   sOB     4    43.93200  37.966    2
X X N H 4 180.0 4.18400 2    X     X    sN    sH     4    4.18400   3.616     2
X X N2 H 4 180.0 4.18400 2    X     X   sN2    sH     4    4.18400   3.616     2
X X NA H 4 180.0 4.18400 2    X     X   sNA    sH     4    4.18400   3.616     2
X X CA HA 4 180.0 4.60240 2    X     X   sCA   sHA     4    4.60240   3.977     2
X X CW H4 4 180.0 4.60240 2    X     X   sCW   sH4     4    4.60240   3.977     2
X X CR H5 4 180.0 4.60240 2    X     X   sCR   sH5     4    4.60240   3.977     2
X X CV H4 4 180.0 4.60240 2    X     X   sCV   sH4     4    4.60240   3.977     2
X X CQ H5 4 180.0 4.60240 2    X     X   sCQ   sH5     4    4.60240   3.977     2
X X CK H5 4 180.0 4.60240 2    X     X   sCK   sH5     4    4.60240   3.977     2
X X CM H4 4 180.0 4.60240 2    X     X   sCM   sH4     4    4.60240   3.977     2
X X CM HA 4 180.0 4.60240 2    X     X   sCM   sHA     4    4.60240   3.977     2
X X CA H4 4 180.0 4.60240 2    X     X   sCA   sH4     4    4.60240   3.977     2
X X CA H5 4 180.0 4.60240 2    X     X   sCA   sH5     4    4.60240   3.977     2
X X C5 O 4 180.0 43.93200 2    X     X   sC5    sO     4    43.93200  37.966    2
C8 CT C N 9 0.0 0.83680 1  sC8   sCT    sC    sN     9    0.83680   0.723     1
C8 CT C N 9 0.0 0.83680 2  sC8   sCT    sC    sN     9    0.83680   0.723     2
C8 CT C N 9 0.0 1.67360 3  sC8   sCT    sC    sN     9    1.67360   1.446     3
C8 CT N C 9 0.0 8.36800 1  sC8   sCT    sN    sC     9    8.36800   7.232     1
C8 CT N C 9 0.0 8.36800 2  sC8   sCT    sN    sC     9    8.36800   7.232     2
C8 CT N C 9 0.0 1.67360 3  sC8   sCT    sN    sC     9    1.67360   1.446     3
C CT C8 O3 9 180.0 4.18400 1   sC   sCT   sC8   sO3     9    4.18400   3.616     1
C CT C8 OH 9 180.0 3.76560 1   sC   sCT   sC8   sOH     9    3.76560   3.254     1
C CT CT C4 9 0.0 2.39074 1   sC   sCT   sCT   sC4     9    2.39074   2.066     1
C CT CT C4 9 180.0 1.49913 2   sC   sCT   sCT   sC4     9    1.49913   1.296     2
C CT CT C4 9 0.0 0.56400 3   sC   sCT   sCT   sC4     9    0.56400   0.487     3
C CT CT C5 9 0.0 0.71421 1   sC   sCT   sCT   sC5     9    0.71421   0.617     1
C CT CT C5 9 180.0 2.49241 2   sC   sCT   sCT   sC5     9    2.49241   2.154     2
C CT CT C5 9 0.0 0.49580 3   sC   sCT   sCT   sC5     9    0.49580   0.428     3
C CT CT C5 9 180.0 1.74556 4   sC   sCT   sCT   sC5     9    1.74556   1.509     4
C CT CT C5 9 0.0 0.43597 5   sC   sCT   sCT   sC5     9    0.43597   0.377     5
C CT CT C5 9 180.0 0.42142 6   sC   sCT   sCT   sC5     9    0.42142   0.364     6
C CT CT C* 9 0.0 1.21336 1   sC   sCT   sCT   sC*     9    1.21336   1.049     1
C CT CT C9 9 0.0 1.25520 1   sC   sCT   sCT   sC9     9    1.25520   1.085     1
C CT CT CA 9 0.0 2.17568 1   sC   sCT   sCT   sCA     9    2.17568   1.880     1
C CT CT CC 9 0.0 2.92880 1   sC   sCT   sCT   sCC     9    2.92880   2.531     1
C CT CT SH 9 180.0 0.66944 1   sC   sCT   sCT   sSH     9    0.66944   0.579     1
Cl CT CT Cl 9 180.0 1.88280 1  sCl   sCT   sCT   sCl     9    1.88280   1.627     1
CM CM C O 9 180.0 9.10020 2  sCM   sCM    sC    sO     9    9.10020   7.864     2
CM CM C O 9 0.0 1.25520 3  sCM   sCM    sC    sO     9    1.25520   1.085     3
C N C1 C 9 0.0 0.35267 1   sC    sN   sC1    sC     9    0.35267   0.305     1
C N C1 C 9 0.0 1.59541 2   sC    sN   sC1    sC     9    1.59541   1.379     2
C N C1 C 9 180.0 0.08381 3   sC    sN   sC1    sC     9    0.08381   0.072     3
C N C1 C 9 0.0 0.32396 4   sC    sN   sC1    sC     9    0.32396   0.280     4
C N C7 C 9 0.0 1.12968 2   sC    sN   sC7    sC     9    1.12968   0.976     2
C N C7 C 9 0.0 1.75728 3   sC    sN   sC7    sC     9    1.75728   1.519     3
C N CT C 9 180.0 0.14226 1   sC    sN   sCT    sC     9    0.14226   0.123     1
C N CT C 9 0.0 1.40164 2   sC    sN   sCT    sC     9    1.40164   1.211     2
C N CT C 9 0.0 2.27610 3   sC    sN   sCT    sC     9    2.27610   1.967     3
C N CT C 9 0.0 0.33472 4   sC    sN   sCT    sC     9    0.33472   0.289     4
CT C7 C N 9 0.0 0.83680 1  sCT   sC7    sC    sN     9    0.83680   0.723     1
CT C7 C N 9 0.0 0.83680 2  sCT   sC7    sC    sN     9    0.83680   0.723     2
CT C7 C N 9 0.0 1.67360 3  sCT   sC7    sC    sN     9    1.67360   1.446     3
CT C7 N C 9 0.0 8.36800 1  sCT   sC7    sN    sC     9    8.36800   7.232     1
CT C7 N C 9 0.0 8.36800 2  sCT   sC7    sN    sC     9    8.36800   7.232     2
CT C7 N C 9 0.0 1.67360 3  sCT   sC7    sN    sC     9    1.67360   1.446     3
CT C9 C O2 9 180.0 2.51040 2  sCT   sC9    sC   sO2     9    2.51040   2.169     2
CT C9 C O 9 180.0 2.51040 2  sCT   sC9    sC    sO     9    2.51040   2.169     2
CT C9 C OB 9 180.0 2.51040 2  sCT   sC9    sC   sOB     9    2.51040   2.169     2
CT CM CM CT 9 180.0 27.82360 2  sCT   sCM   sCM   sCT     9    27.82360  24.045    2
CT CM CM CT 9 180.0 7.94960 1  sCT   sCM   sCM   sCT     9    7.94960   6.870     1
CT CT C4 CT 9 0.0 0.62760 3  sCT   sCT   sC4   sCT     9    0.62760   0.542     3
CT CT C5 O 9 180.0 4.18400 1  sCT   sCT   sC5    sO     9    4.18400   3.616     1
CT CT C6 O2 9 180.0 0.77822 4  sCT   sCT   sC6   sO2     9    0.77822   0.673     4
CT CT C6 O2 9 180.0 1.48114 6  sCT   sCT   sC6   sO2     9    1.48114   1.280     6
CT CT C6 O2 9 180.0 3.65263 2  sCT   sCT   sC6   sO2     9    3.65263   3.157     2
CT CT C* CW 9 0.0 5.02080 1  sCT   sCT   sC*   sCW     9    5.02080   4.339     1
CT CT C N 9 0.0 0.83680 1  sCT   sCT    sC    sN     9    0.83680   0.723     1
CT CT C N 9 0.0 0.83680 2  sCT   sCT    sC    sN     9    0.83680   0.723     2
CT CT C N 9 0.0 1.67360 3  sCT   sCT    sC    sN     9    1.67360   1.446     3
CT CT CT C3 9 0.0 0.62760 3  sCT   sCT   sCT   sC3     9    0.62760   0.542     3
CT CT CT C7 9 0.0 0.75312 3  sCT   sCT   sCT   sC7     9    0.75312   0.651     3
CT CT CT C7 9 180.0 0.83680 1  sCT   sCT   sCT   sC7     9    0.83680   0.723     1
CT CT CT C7 9 180.0 1.04600 2  sCT   sCT   sCT   sC7     9    1.04600   0.904     2
CT CT CT CT 9 0.0 0.62760 3  sCT   sCT   sCT   sCT     9    0.62760   0.542     3
CT CT N C 9 0.0 1.67360 3  sCT   sCT    sN    sC     9    1.67360   1.446     3
CT CT N C 9 0.0 8.36800 1  sCT   sCT    sN    sC     9    8.36800   7.232     1
CT CT N C 9 0.0 8.36800 2  sCT   sCT    sN    sC     9    8.36800   7.232     2
CT CT OS C 9 0.0 1.60247 3  sCT   sCT   sOS    sC     9    1.60247   1.385     3
CT CT OS C 9 180.0 3.34720 1  sCT   sCT   sOS    sC     9    3.34720   2.893     1
CT CT OS CT 9 0.0 1.60247 3  sCT   sCT   sOS   sCT     9    1.60247   1.385     3
CT CT OS CT 9 180.0 0.41840 2  sCT   sCT   sOS   sCT     9    0.41840   0.362     2
CT CT SH HS 9 0.0 0.83680 3  sCT   sCT   sSH   sHS     9    0.83680   0.723     3
CT CT SH HS 9 0.0 2.09200 2  sCT   sCT   sSH   sHS     9    2.09200   1.808     2
CT OS CT N* 9 0.0 1.60247 3  sCT   sOS   sCT   sN*     9    1.60247   1.385     3
CT OS CT N* 9 0.0 2.71960 2  sCT   sOS   sCT   sN*     9    2.71960   2.350     2
CT OS CT OS 9 0.0 0.41840 3  sCT   sOS   sCT   sOS     9    0.41840   0.362     3
CT OS CT OS 9 180.0 3.55640 2  sCT   sOS   sCT   sOS     9    3.55640   3.073     2
CT OS CT OS 9 180.0 5.64840 1  sCT   sOS   sCT   sOS     9    5.64840   4.881     1
CT S S CT 9 0.0 14.64400 2  sCT    sS    sS   sCT     9    14.64400  12.655    2
CT S S CT 9 0.0 2.51040 3  sCT    sS    sS   sCT     9    2.51040   2.169     3
F CT CT F 9 180.0 5.02080 1   sF   sCT   sCT    sF     9    5.02080   4.339     1
H1 C1 C O 9 0.0 3.34720 1  sH1   sC1    sC    sO     9    3.34720   2.893     1
H1 C1 C O 9 180.0 0.33472 3  sH1   sC1    sC    sO     9    0.33472   0.289     3
H1 C7 C O 9 0.0 3.34720 1  sH1   sC7    sC    sO     9    3.34720   2.893     1
H1 C7 C O 9 180.0 0.33472 3  sH1   sC7    sC    sO     9    0.33472   0.289     3
H1 CT C O 9 0.0 3.34720 1  sH1   sCT    sC    sO     9    3.34720   2.893     1
H1 CT C O 9 180.0 0.33472 3  sH1   sCT    sC    sO     9    0.33472   0.289     3
H1 C1 C OB 9 0.0 3.34720 1  sH1   sC1    sC   sOB     9    3.34720   2.893     1
H1 C1 C OB 9 180.0 0.33472 3  sH1   sC1    sC   sOB     9    0.33472   0.289     3
H1 C7 C OB 9 0.0 3.34720 1  sH1   sC7    sC   sOB     9    3.34720   2.893     1
H1 C7 C OB 9 180.0 0.33472 3  sH1   sC7    sC   sOB     9    0.33472   0.289     3
H1 CT C OB 9 0.0 3.34720 1  sH1   sCT    sC   sOB     9    3.34720   2.893     1
H1 CT C OB 9 180.0 0.33472 3  sH1   sCT    sC   sOB     9    0.33472   0.289     3
H1 CT CT Br 9 0.0 2.30120 1  sH1   sCT   sCT   sBr     9    2.30120   1.989     1
H1 CT CT Cl 9 0.0 1.04600 1  sH1   sCT   sCT   sCl     9    1.04600   0.904     1
H1 CT CT F 9 0.0 0.79496 1  sH1   sCT   sCT    sF     9    0.79496   0.687     1
H1 CT CT OH 9 0.0 1.04600 1  sH1   sCT   sCT   sOH     9    1.04600   0.904     1
H1 CT CT OS 9 0.0 1.04600 1  sH1   sCT   sCT   sOS     9    1.04600   0.904     1
HC C3 CT CT 9 0.0 0.66944 3  sHC   sC3   sCT   sCT     9    0.66944   0.579     3
HC C4 CT CT 9 0.0 0.66944 3  sHC   sC4   sCT   sCT     9    0.66944   0.579     3
HC C4 CT HC 9 0.0 0.62760 3  sHC   sC4   sCT   sHC     9    0.62760   0.542     3
HC CT C3 HC 9 0.0 0.62760 3  sHC   sCT   sC3   sHC     9    0.62760   0.542     3
HC CT C4 CT 9 0.0 0.66944 3  sHC   sCT   sC4   sCT     9    0.66944   0.579     3
HC CT C5 O 9 0.0 3.34720 1  sHC   sCT   sC5    sO     9    3.34720   2.893     1
HC CT C5 O 9 180.0 0.33472 3  sHC   sCT   sC5    sO     9    0.33472   0.289     3
HC CT CM CM 9 0.0 4.81160 1  sHC   sCT   sCM   sCM     9    4.81160   4.158     1
HC CT CM CM 9 180.0 1.58992 3  sHC   sCT   sCM   sCM     9    1.58992   1.374     3
HC CT C O 9 0.0 3.34720 1  sHC   sCT    sC    sO     9    3.34720   2.893     1
HC CT C O 9 180.0 0.33472 3  sHC   sCT    sC    sO     9    0.33472   0.289     3
HC CT C OB 9 0.0 3.34720 1  sHC   sCT    sC   sOB     9    3.34720   2.893     1
HC CT C OB 9 180.0 0.33472 3  sHC   sCT    sC   sOB     9    0.33472   0.289     3
HC CT CT Br 9 0.0 2.30120 1  sHC   sCT   sCT   sBr     9    2.30120   1.989     1
HC CT CT C3 9 0.0 0.66944 3  sHC   sCT   sCT   sC3     9    0.66944   0.579     3
HC CT CT C4 9 0.0 0.66944 3  sHC   sCT   sCT   sC4     9    0.66944   0.579     3
HC CT CT C7 9 0.0 0.66944 3  sHC   sCT   sCT   sC7     9    0.66944   0.579     3
HC CT CT Cl 9 0.0 1.04600 1  sHC   sCT   sCT   sCl     9    1.04600   0.904     1
HC CT CT CT 9 0.0 0.66944 3  sHC   sCT   sCT   sCT     9    0.66944   0.579     3
HC CT CT F 9 0.0 0.79496 1  sHC   sCT   sCT    sF     9    0.79496   0.687     1
HC CT CT HC 9 0.0 0.62760 3  sHC   sCT   sCT   sHC     9    0.62760   0.542     3
HC CT CT OH 9 0.0 1.04600 1  sHC   sCT   sCT   sOH     9    1.04600   0.904     1
HC CT CT OS 9 0.0 1.04600 1  sHC   sCT   sCT   sOS     9    1.04600   0.904     1
H N C5 O 9 0.0 8.36800 1   sH    sN   sC5    sO     9    8.36800   7.232     1
H N C5 O 9 180.0 10.46000 2   sH    sN   sC5    sO     9    10.46000  9.040     2
H N C O 9 0.0 8.36800 1   sH    sN    sC    sO     9    8.36800   7.232     1
H N C O 9 180.0 10.46000 2   sH    sN    sC    sO     9    10.46000  9.040     2
HB N C OB 9 0.0 8.36800 1  sHB    sN    sC   sOB     9    8.36800   7.232     1
HB N C OB 9 180.0 10.46000 2  sHB    sN    sC   sOB     9    10.46000  9.040     2
HO O3 C8 CT 9 0.0 0.35982 1  sHO   sO3   sC8   sCT     9    0.35982   0.311     1
HO O3 C8 CT 9 0.0 0.41840 3  sHO   sO3   sC8   sCT     9    0.41840   0.362     3
HO O3 C8 CT 9 180.0 0.68199 2  sHO   sO3   sC8   sCT     9    0.68199   0.589     2
HO O3 C8 H1 9 0.0 0.41840 3  sHO   sO3   sC8   sH1     9    0.41840   0.362     3
HO OH C8 CT 9 0.0 0.25104 2  sHO   sOH   sC8   sCT     9    0.25104   0.217     2
HO OH C8 CT 9 0.0 0.83680 3  sHO   sOH   sC8   sCT     9    0.83680   0.723     3
HO OH C8 CT 9 0.0 3.13800 1  sHO   sOH   sC8   sCT     9    3.13800   2.712     1
HO OH C O 9 0.0 7.94960 1  sHO   sOH    sC    sO     9    7.94960   6.870     1
HO OH C O 9 180.0 9.62320 2  sHO   sOH    sC    sO     9    9.62320   8.316     2
HO OH CT CT 9 0.0 0.66944 3  sHO   sOH   sCT   sCT     9    0.66944   0.579     3
HO OH CT CT 9 0.0 1.04600 1  sHO   sOH   sCT   sCT     9    1.04600   0.904     1
N3 CT CT C3 9 0.0 0.81630 1  sN3   sCT   sCT   sC3     9    0.81630   0.705     1
N3 CT CT C3 9 180.0 3.53925 2  sN3   sCT   sCT   sC3     9    3.53925   3.059     2
N3 CT CT C6 9 180.0 11.02568 1  sN3   sCT   sCT   sC6     9    11.02568  9.528     1
N3 CT CT C6 9 180.0 4.98022 2  sN3   sCT   sCT   sC6     9    4.98022   4.304     2
N3 CT CT C6 9 180.0 0.02845 3  sN3   sCT   sCT   sC6     9    0.02845   0.025     3
N3 CT CT C6 9 0.0 1.76858 4  sN3   sCT   sCT   sC6     9    1.76858   1.528     4
N3 CT CT C6 9 0.0 0.96943 5  sN3   sCT   sCT   sC6     9    0.96943   0.838     5
N3 CT CT C6 9 180.0 0.89009 6  sN3   sCT   sCT   sC6     9    0.89009   0.769     6
N C1 C N 9 180.0 2.69445 1   sN   sC1    sC    sN     9    2.69445   2.329     1
N C1 C N 9 180.0 6.68666 2   sN   sC1    sC    sN     9    6.68666   5.779     2
N C1 C N 9 180.0 1.67111 3   sN   sC1    sC    sN     9    1.67111   1.444     3
N C1 C N 9 0.0 0.31419 4   sN   sC1    sC    sN     9    0.31419   0.272     4
N C5 CT CT 9 180.0 4.37772 1   sN   sC5   sCT   sCT     9    4.37772   3.783     1
N C5 CT CT 9 180.0 0.75730 2   sN   sC5   sCT   sCT     9    0.75730   0.654     2
N C5 CT CT 9 180.0 0.14811 3   sN   sC5   sCT   sCT     9    0.14811   0.128     3
N C5 CT CT 9 0.0 0.41966 4   sN   sC5   sCT   sCT     9    0.41966   0.363     4
N C5 CT CT 9 0.0 0.54308 5   sN   sC5   sCT   sCT     9    0.54308   0.469     5
N C5 CT CT 9 180.0 0.44373 6   sN   sC5   sCT   sCT     9    0.44373   0.383     6
N C7 C N 9 180.0 1.88280 1   sN   sC7    sC    sN     9    1.88280   1.627     1
N C7 C N 9 180.0 6.61072 2   sN   sC7    sC    sN     9    6.61072   5.713     2
N C7 C N 9 180.0 2.30120 3   sN   sC7    sC    sN     9    2.30120   1.989     3
N CT C8 CT 9 0.0 0.25104 1   sN   sCT   sC8   sCT     9    0.25104   0.217     1
N CT C8 CT 9 180.0 2.09200 2   sN   sCT   sC8   sCT     9    2.09200   1.808     2
N CT C8 CT 9 0.0 0.62760 3   sN   sCT   sC8   sCT     9    0.62760   0.542     3
N CT C8 CT 9 180.0 0.27196 4   sN   sCT   sC8   sCT     9    0.27196   0.235     4
N CT C8 O3 9 180.0 0.33472 1   sN   sCT   sC8   sO3     9    0.33472   0.289     1
N CT C8 OH 9 180.0 1.04600 1   sN   sCT   sC8   sOH     9    1.04600   0.904     1
N CT C N 9 360.0 0.82425 1   sN   sCT    sC    sN     9    0.82425   0.712     1
N CT C N 9 180.0 6.04588 2   sN   sCT    sC    sN     9    6.04588   5.225     2
N CT C N 9 180.0 2.00414 3   sN   sCT    sC    sN     9    2.00414   1.732     3
N CT C N 9 360.0 0.07991 4   sN   sCT    sC    sN     9    0.07991   0.069     4
N CT C N 9 360.0 0.01674 5   sN   sCT    sC    sN     9    0.01674   0.014     5
N CT CT C3 9 0.0 0.81630 1   sN   sCT   sCT   sC3     9    0.81630   0.705     1
N CT CT C3 9 180.0 3.53925 2   sN   sCT   sCT   sC3     9    3.53925   3.059     2
N CT CT C5 9 180.0 2.63592 1   sN   sCT   sCT   sC5     9    2.63592   2.278     1
N CT CT C6 9 180.0 12.05410 1   sN   sCT   sCT   sC6     9    12.05410  10.417    1
N CT CT C6 9 180.0 5.06682 2   sN   sCT   sCT   sC6     9    5.06682   4.379     2
N CT CT C6 9 0.0 0.25941 3   sN   sCT   sCT   sC6     9    0.25941   0.224     3
N CT CT C6 9 0.0 1.02508 4   sN   sCT   sCT   sC6     9    1.02508   0.886     4
N CT CT C6 9 0.0 0.54810 5   sN   sCT   sCT   sC6     9    0.54810   0.474     5
N CT CT C6 9 180.0 0.59413 6   sN   sCT   sCT   sC6     9    0.59413   0.513     6
N CT CT C9 9 0.0 0.41840 1   sN   sCT   sCT   sC9     9    0.41840   0.362     1
N CT CT CC 9 180.0 1.67360 1   sN   sCT   sCT   sCC     9    1.67360   1.446     1
N CT CT SH 9 180.0 2.30120 1   sN   sCT   sCT   sSH     9    2.30120   1.989     1
N CT CT SH 9 180.0 2.63592 2   sN   sCT   sCT   sSH     9    2.63592   2.278     2
N CT CT SH 9 180.0 0.25104 3   sN   sCT   sCT   sSH     9    0.25104   0.217     3
N CT CT SH 9 180.0 0.12552 4   sN   sCT   sCT   sSH     9    0.12552   0.108     4
O C OS CT 9 180.0 5.85760 1   sO    sC   sOS   sCT     9    5.85760   5.062     1
O C OS CT 9 180.0 11.29680 2   sO    sC   sOS   sCT     9    11.29680  9.763     2
OH CT CT OH 9 0.0 0.60250 3  sOH   sCT   sCT   sOH     9    0.60250   0.521     3
OH CT CT OH 9 0.0 4.91620 2  sOH   sCT   sCT   sOH     9    4.91620   4.249     2
OH P OS CT 9 0.0 1.04600 3  sOH    sP   sOS   sCT     9    1.04600   0.904     3
OH P OS CT 9 0.0 5.02080 2  sOH    sP   sOS   sCT     9    5.02080   4.339     2
OS CT CT OH 9 0.0 0.60250 3  sOS   sCT   sCT   sOH     9    0.60250   0.521     3
OS CT CT OH 9 0.0 4.91620 2  sOS   sCT   sCT   sOH     9    4.91620   4.249     2
OS CT CT OS 9 0.0 4.91620 2  sOS   sCT   sCT   sOS     9    4.91620   4.249     2
OS CT CT OS 9 0.0 0.60250 3  sOS   sCT   sCT   sOS     9    0.60250   0.521     3
OS CT N* CK 9 0.0 10.46000 1  sOS   sCT   sN*   sCK     9    10.46000  9.040     1
OS CT N* CM 9 0.0 10.46000 1  sOS   sCT   sN*   sCM     9    10.46000  9.040     1
OS P OS CT 9 0.0 5.02080 2  sOS    sP   sOS   sCT     9    5.02080   4.339     2
OS P OS CT 9 0.0 1.04600 3  sOS    sP   sOS   sCT     9    1.04600   0.904     3
N CT CT CA 9 0.0 0.00000 0   sN   sCT   sCT   sCA     9    0.00000   0.000     0
N CT CT C* 9 0.0 0.00000 0   sN   sCT   sCT   sC*     9    0.00000   0.000     0
CT CT C9 S 9 0.0 0.00000 0  sCT   sCT   sC9    sS     9    0.00000   0.000     0
CT CT C9 CT 9 0.0 0.00000 0  sCT   sCT   sC9   sCT     9    0.00000   0.000     0
X C1 N3 X 9 0.0 0.65084 3    X   sC1   sN3     X     9    0.65084   0.562     3
X C5 N X 9 180.0 10.46000 2    X   sC5    sN     X     9    10.46000  9.040     2
X C7 CT X 9 0.0 0.65084 3    X   sC7   sCT     X     9    0.65084   0.562     3
X C7 N3 X 9 0.0 0.65084 3    X   sC7   sN3     X     9    0.65084   0.562     3
X C8 O3 X 9 0.0 0.69873 3    X   sC8   sO3     X     9    0.69873   0.604     3
X C8 OH X 9 0.0 0.69873 3    X   sC8   sOH     X     9    0.69873   0.604     3
X C9 S X 9 0.0 1.39327 3    X   sC9    sS     X     9    1.39327   1.204     3
X CA CA X 9 180.0 15.16700 2    X   sCA   sCA     X     9    15.16700  13.107    2
X CA CB X 9 180.0 14.64400 2    X   sCA   sCB     X     9    14.64400  12.655    2
X CA CM X 9 180.0 10.66920 2    X   sCA   sCM     X     9    10.66920  9.220     2
X CA CN X 9 180.0 15.16700 2    X   sCA   sCN     X     9    15.16700  13.107    2
X CA N2 X 9 180.0 10.04160 2    X   sCA   sN2     X     9    10.04160  8.678     2
X CA NA X 9 180.0 6.27600 2    X   sCA   sNA     X     9    6.27600   5.424     2
X CA NC X 9 180.0 20.08320 2    X   sCA   sNC     X     9    20.08320  17.356    2
X CA OH X 9 180.0 3.76560 2    X   sCA   sOH     X     9    3.76560   3.254     2
X CB CB X 9 180.0 22.80280 2    X   sCB   sCB     X     9    22.80280  19.706    2
X CB CN X 9 180.0 12.55200 2    X   sCB   sCN     X     9    12.55200  10.847    2
X CB NB X 9 180.0 10.66920 2    X   sCB   sNB     X     9    10.66920  9.220     2
X CB NC X 9 180.0 17.36360 2    X   sCB   sNC     X     9    17.36360  15.006    2
X CB N* X 9 180.0 6.90360 2    X   sCB   sN*     X     9    6.90360   5.966     2
X C CA X 9 180.0 15.16700 2    X    sC   sCA     X     9    15.16700  13.107    2
X C CB X 9 180.0 12.55200 2    X    sC   sCB     X     9    12.55200  10.847    2
X C* CB X 9 180.0 7.00820 2    X   sC*   sCB     X     9    7.00820   6.056     2
X CC CV X 9 180.0 21.54760 2    X   sCC   sCV     X     9    21.54760  18.621    2
X CC CW X 9 180.0 22.48900 2    X   sCC   sCW     X     9    22.48900  19.435    2
X C CM X 9 180.0 9.10020 2    X    sC   sCM     X     9    9.10020   7.864     2
X CC NA X 9 180.0 5.85760 2    X   sCC   sNA     X     9    5.85760   5.062     2
X CC NB X 9 180.0 10.04160 2    X   sCC   sNB     X     9    10.04160  8.678     2
X C* CW X 9 180.0 27.30060 2    X   sC*   sCW     X     9    27.30060  23.593    2
X C C X 9 180.0 15.16700 2    X    sC    sC     X     9    15.16700  13.107    2
X CK NB X 9 180.0 41.84000 2    X   sCK   sNB     X     9    41.84000  36.158    2
X CK N* X 9 180.0 7.11280 2    X   sCK   sN*     X     9    7.11280   6.147     2
X CM CM X 9 180.0 27.82360 2    X   sCM   sCM     X     9    27.82360  24.045    2
X CM N* X 9 180.0 7.74040 2    X   sCM   sN*     X     9    7.74040   6.689     2
X CM OS X 9 180.0 4.39320 2    X   sCM   sOS     X     9    4.39320   3.797     2
X C NA X 9 180.0 5.64840 2    X    sC   sNA     X     9    5.64840   4.881     2
X C NC X 9 180.0 16.73600 2    X    sC   sNC     X     9    16.73600  14.463    2
X CN NA X 9 180.0 6.38060 2    X   sCN   sNA     X     9    6.38060   5.514     2
X C N X 9 180.0 10.46000 2    X    sC    sN     X     9    10.46000  9.040     2
X C N* X 9 180.0 6.06680 2    X    sC   sN*     X     9    6.06680   5.243     2
X C OH X 9 180.0 9.62320 2    X    sC   sOH     X     9    9.62320   8.316     2
X C OS X 9 180.0 11.29680 2    X    sC   sOS     X     9    11.29680  9.763     2
X C O X 9 180.0 11.71520 2    X    sC    sO     X     9    11.71520  10.124    2
X C OB X 9 180.0 11.71520 2    X    sC   sOB     X     9    11.71520  10.124    2
X CQ NC X 9 180.0 28.45120 2    X   sCQ   sNC     X     9    28.45120  24.588    2
X CR NA X 9 180.0 9.72780 2    X   sCR   sNA     X     9    9.72780   8.407     2
X CR NB X 9 180.0 20.92000 2    X   sCR   sNB     X     9    20.92000  18.079    2
X CT C8 X 9 0.0 0.64852 3    X   sCT   sC8     X     9    0.64852   0.560     3
X CT C9 X 9 0.0 0.64852 3    X   sCT   sC9     X     9    0.64852   0.560     3
X CT CT X 9 0.0 0.65084 3    X   sCT   sCT     X     9    0.65084   0.562     3
X CT N3 X 9 0.0 0.65084 3    X   sCT   sN3     X     9    0.65084   0.562     3
X CT OH X 9 0.0 0.69733 3    X   sCT   sOH     X     9    0.69733   0.603     3
X CT OS X 9 0.0 1.60387 3    X   sCT   sOS     X     9    1.60387   1.386     3
X CT SH X 9 0.0 1.04600 3    X   sCT   sSH     X     9    1.04600   0.904     3
X CT S X 9 0.0 1.39467 3    X   sCT    sS     X     9    1.39467   1.205     3
X CV NB X 9 180.0 10.04160 2    X   sCV   sNB     X     9    10.04160  8.678     2
X CW NA X 9 180.0 6.27600 2    X   sCW   sNA     X     9    6.27600   5.424     2
X OH P X 9 0.0 1.04600 3    X   sOH    sP     X     9    1.04600   0.904     3
X OS P X 9 0.0 1.04600 3    X   sOS    sP     X     9    1.04600   0.904     3
X C1 N X 9 0.0 0.00000 0    X   sC1    sN     X     9    0.00000   0.000     0
X C C1 X 9 0.0 0.00000 0    X    sC   sC1     X     9    0.00000   0.000     0
X C C9 X 9 0.0 0.00000 0    X    sC   sC9     X     9    0.00000   0.000     0
X C CT X 9 0.0 0.00000 0    X    sC   sCT     X     9    0.00000   0.000     0
X CA CT X 9 0.0 0.00000 0    X   sCA   sCT     X     9    0.00000   0.000     0
X CC CT X 9 0.0 0.00000 0    X   sCC   sCT     X     9    0.00000   0.000     0
X CM CT X 9 0.0 0.00000 0    X   sCM   sCT     X     9    0.00000   0.000     0
X CT N X 9 0.0 0.00000 0    X   sCT    sN     X     9    0.00000   0.000     0
X CT N* X 9 0.0 0.00000 0    X   sCT   sN*     X     9    0.00000   0.000     0
X CT N2 X 9 0.0 0.00000 0    X   sCT   sN2     X     9    0.00000   0.000     0
X C* CT X 9 0.0 0.00000 0    X   sC*   sCT     X     9    0.00000   0.000     0
X C7 N X 9 0.0 0.00000 0    X   sC7    sN     X     9    0.00000   0.000     0
X C C7 X 9 0.0 0.00000 0    X    sC   sC7     X     9    0.00000   0.000     0
X C5 CT X 9 0.0 0.00000 0    X   sC5   sCT     X     9    0.00000   0.000     0
X C6 CT X 9 0.0 0.00000 0    X   sC6   sCT     X     9    0.00000   0.000     0
C C1 N O 4 180.0 4.60240 2   sC   sC1    sN    sO     4    4.60240   3.697     2
C C1 N OB 4 180.0 4.60240 2   sC   sC1    sN   sOB     4    4.60240   3.697     2
C C1 N H 4 180.0 4.60240 2   sC   sC1    sN    sH     4    4.60240   3.697     2
C C1 N HB 4 180.0 4.60240 2   sC   sC1    sN   sHB     4    4.60240   3.697     2
C9 O C OH 4 180.0 43.93200 2  sC9    sO    sC   sOH     4    43.93200  35.294    2
CB CK N* CT 4 180.0 4.18400 2  sCB   sCK   sN*   sCT     4    4.18400   3.361     2
C CM N* CT 4 180.0 4.18400 2   sC   sCM   sN*   sCT     4    4.18400   3.361     2
CT O C OH 4 180.0 43.93200 2  sCT    sO    sC   sOH     4    43.93200  35.294    2
CT CV CC NA 4 180.0 4.60240 2  sCT   sCV   sCC   sNA     4    4.60240   3.697     2
CT CW CC NB 4 180.0 4.60240 2  sCT   sCW   sCC   sNB     4    4.60240   3.697     2
CT CC CW NB 4 180.0 4.60240 2  sCT   sCC   sCW   sNB     4    4.60240   3.697     2
CT CW CC NA 4 180.0 4.60240 2  sCT   sCW   sCC   sNA     4    4.60240   3.697     2
CB CT C* CW 4 180.0 4.60240 2  sCB   sCT   sC*   sCW     4    4.60240   3.697     2
CA CA CA CT 4 180.0 4.60240 2  sCA   sCA   sCA   sCT     4    4.60240   3.697     2
C CM CM CT 4 180.0 4.60240 2   sC   sCM   sCM   sCT     4    4.60240   3.697     2
CM N2 CA NC 4 180.0 4.60240 2  sCM   sN2   sCA   sNC     4    4.60240   3.697     2
CB N2 CA NC 4 180.0 4.60240 2  sCB   sN2   sCA   sNC     4    4.60240   3.697     2
N2 NA CA NC 4 180.0 4.60240 2  sN2   sNA   sCA   sNC     4    4.60240   3.697     2
CA CA C OH 4 180.0 4.60240 2  sCA   sCA    sC   sOH     4    4.60240   3.697     2
CA CA CA OH 4 180.0 4.60240 2  sCA   sCA   sCA   sOH     4    4.60240   3.697     2
H5 O C OH 4 180.0 4.60240 2  sH5    sO    sC   sOH     4    4.60240   3.697     2
H5 O C OS 4 180.0 4.60240 2  sH5    sO    sC   sOS     4    4.60240   3.697     2
CM CT CM HA 4 180.0 4.60240 2  sCM   sCT   sCM   sHA     4    4.60240   3.697     2
Br CA CA CA 4 180.0 4.60240 2  sBr   sCA   sCA   sCA     4    4.60240   3.697     2
CM H4 C O 4 180.0 4.60240 2  sCM   sH4    sC    sO     4    4.60240   3.697     2
C CT N H 4 180.0 4.60240 2   sC   sCT    sN    sH     4    4.60240   3.697     2
C CT N HB 4 180.0 4.60240 2   sC   sCT    sN   sHB     4    4.60240   3.697     2
C CT N O 4 180.0 4.60240 2   sC   sCT    sN    sO     4    4.60240   3.697     2
C C7 N O 4 180.0 4.60240 2   sC   sC7    sN    sO     4    4.60240   3.697     2
C CT N OB 4 180.0 4.60240 2   sC   sCT    sN   sOB     4    4.60240   3.697     2
C C7 N OB 4 180.0 4.60240 2   sC   sC7    sN   sOB     4    4.60240   3.697     2
C C7 N H 4 180.0 4.60240 2   sC   sC7    sN    sH     4    4.60240   3.697     2
C C7 N HB 4 180.0 4.60240 2   sC   sC7    sN   sHB     4    4.60240   3.697     2
C5 CT N O 4 180.0 4.60240 2  sC5   sCT    sN    sO     4    4.60240   3.697     2
C5 CT N OB 4 180.0 4.60240 2  sC5   sCT    sN   sOB     4    4.60240   3.697     2
C5 CT N H 4 180.0 4.60240 2  sC5   sCT    sN    sH     4    4.60240   3.697     2
C5 CT N HB 4 180.0 4.60240 2  sC5   sCT    sN   sHB     4    4.60240   3.697     2
X CT N C1 4 180.0 4.18400 2    X   sCT    sN   sC1     4    4.18400   3.361     2
X CT N C7 4 180.0 4.18400 2    X   sCT    sN   sC7     4    4.18400   3.361     2
X O2 C6 O2 4 180.0 43.93200 2    X   sO2   sC6   sO2     4    43.93200  35.294    2
X O2 C O2 4 180.0 43.93200 2    X   sO2    sC   sO2     4    43.93200  35.294    2
X N2 CA N2 4 180.0 43.93200 2    X   sN2   sCA   sN2     4    43.93200  35.294    2
X CT N CT 4 180.0 4.18400 2    X   sCT    sN   sCT     4    4.18400   3.361     2
X X C O 4 180.0 43.93200 2    X     X    sC    sO     4    43.93200  35.294    2
X X C OB 4 180.0 43.93200 2    X     X    sC   sOB     4    43.93200  35.294    2
X X N H 4 180.0 4.18400 2    X     X    sN    sH     4    4.18400   3.361     2
X X N2 H 4 180.0 4.18400 2    X     X   sN2    sH     4    4.18400   3.361     2
X X NA H 4 180.0 4.18400 2    X     X   sNA    sH     4    4.18400   3.361     2
X X CA HA 4 180.0 4.60240 2    X     X   sCA   sHA     4    4.60240   3.697     2
X X CW H4 4 180.0 4.60240 2    X     X   sCW   sH4     4    4.60240   3.697     2
X X CR H5 4 180.0 4.60240 2    X     X   sCR   sH5     4    4.60240   3.697     2
X X CV H4 4 180.0 4.60240 2    X     X   sCV   sH4     4    4.60240   3.697     2
X X CQ H5 4 180.0 4.60240 2    X     X   sCQ   sH5     4    4.60240   3.697     2
X X CK H5 4 180.0 4.60240 2    X     X   sCK   sH5     4    4.60240   3.697     2
X X CM H4 4 180.0 4.60240 2    X     X   sCM   sH4     4    4.60240   3.697     2
X X CM HA 4 180.0 4.60240 2    X     X   sCM   sHA     4    4.60240   3.697     2
X X CA H4 4 180.0 4.60240 2    X     X   sCA   sH4     4    4.60240   3.697     2
X X CA H5 4 180.0 4.60240 2    X     X   sCA   sH5     4    4.60240   3.697     2
X X C5 O 4 180.0 43.93200 2    X     X   sC5    sO     4    43.93200  35.294    2
C8 CT C N 9 0.0 0.83680 1  sC8   sCT    sC    sN     9    0.83680   0.672     1
C8 CT C N 9 0.0 0.83680 2  sC8   sCT    sC    sN     9    0.83680   0.672     2
C8 CT C N 9 0.0 1.67360 3  sC8   sCT    sC    sN     9    1.67360   1.345     3
C8 CT N C 9 0.0 8.36800 1  sC8   sCT    sN    sC     9    8.36800   6.723     1
C8 CT N C 9 0.0 8.36800 2  sC8   sCT    sN    sC     9    8.36800   6.723     2
C8 CT N C 9 0.0 1.67360 3  sC8   sCT    sN    sC     9    1.67360   1.345     3
C CT C8 O3 9 180.0 4.18400 1   sC   sCT   sC8   sO3     9    4.18400   3.361     1
C CT C8 OH 9 180.0 3.76560 1   sC   sCT   sC8   sOH     9    3.76560   3.025     1
C CT CT C4 9 0.0 2.39074 1   sC   sCT   sCT   sC4     9    2.39074   1.921     1
C CT CT C4 9 180.0 1.49913 2   sC   sCT   sCT   sC4     9    1.49913   1.204     2
C CT CT C4 9 0.0 0.56400 3   sC   sCT   sCT   sC4     9    0.56400   0.453     3
C CT CT C5 9 0.0 0.71421 1   sC   sCT   sCT   sC5     9    0.71421   0.574     1
C CT CT C5 9 180.0 2.49241 2   sC   sCT   sCT   sC5     9    2.49241   2.002     2
C CT CT C5 9 0.0 0.49580 3   sC   sCT   sCT   sC5     9    0.49580   0.398     3
C CT CT C5 9 180.0 1.74556 4   sC   sCT   sCT   sC5     9    1.74556   1.402     4
C CT CT C5 9 0.0 0.43597 5   sC   sCT   sCT   sC5     9    0.43597   0.350     5
C CT CT C5 9 180.0 0.42142 6   sC   sCT   sCT   sC5     9    0.42142   0.339     6
C CT CT C* 9 0.0 1.21336 1   sC   sCT   sCT   sC*     9    1.21336   0.975     1
C CT CT C9 9 0.0 1.25520 1   sC   sCT   sCT   sC9     9    1.25520   1.008     1
C CT CT CA 9 0.0 2.17568 1   sC   sCT   sCT   sCA     9    2.17568   1.748     1
C CT CT CC 9 0.0 2.92880 1   sC   sCT   sCT   sCC     9    2.92880   2.353     1
C CT CT SH 9 180.0 0.66944 1   sC   sCT   sCT   sSH     9    0.66944   0.538     1
Cl CT CT Cl 9 180.0 1.88280 1  sCl   sCT   sCT   sCl     9    1.88280   1.513     1
CM CM C O 9 180.0 9.10020 2  sCM   sCM    sC    sO     9    9.10020   7.311     2
CM CM C O 9 0.0 1.25520 3  sCM   sCM    sC    sO     9    1.25520   1.008     3
C N C1 C 9 0.0 0.35267 1   sC    sN   sC1    sC     9    0.35267   0.283     1
C N C1 C 9 0.0 1.59541 2   sC    sN   sC1    sC     9    1.59541   1.282     2
C N C1 C 9 180.0 0.08381 3   sC    sN   sC1    sC     9    0.08381   0.067     3
C N C1 C 9 0.0 0.32396 4   sC    sN   sC1    sC     9    0.32396   0.260     4
C N C7 C 9 0.0 1.12968 2   sC    sN   sC7    sC     9    1.12968   0.908     2
C N C7 C 9 0.0 1.75728 3   sC    sN   sC7    sC     9    1.75728   1.412     3
C N CT C 9 180.0 0.14226 1   sC    sN   sCT    sC     9    0.14226   0.114     1
C N CT C 9 0.0 1.40164 2   sC    sN   sCT    sC     9    1.40164   1.126     2
C N CT C 9 0.0 2.27610 3   sC    sN   sCT    sC     9    2.27610   1.829     3
C N CT C 9 0.0 0.33472 4   sC    sN   sCT    sC     9    0.33472   0.269     4
CT C7 C N 9 0.0 0.83680 1  sCT   sC7    sC    sN     9    0.83680   0.672     1
CT C7 C N 9 0.0 0.83680 2  sCT   sC7    sC    sN     9    0.83680   0.672     2
CT C7 C N 9 0.0 1.67360 3  sCT   sC7    sC    sN     9    1.67360   1.345     3
CT C7 N C 9 0.0 8.36800 1  sCT   sC7    sN    sC     9    8.36800   6.723     1
CT C7 N C 9 0.0 8.36800 2  sCT   sC7    sN    sC     9    8.36800   6.723     2
CT C7 N C 9 0.0 1.67360 3  sCT   sC7    sN    sC     9    1.67360   1.345     3
CT C9 C O2 9 180.0 2.51040 2  sCT   sC9    sC   sO2     9    2.51040   2.017     2
CT C9 C O 9 180.0 2.51040 2  sCT   sC9    sC    sO     9    2.51040   2.017     2
CT C9 C OB 9 180.0 2.51040 2  sCT   sC9    sC   sOB     9    2.51040   2.017     2
CT CM CM CT 9 180.0 27.82360 2  sCT   sCM   sCM   sCT     9    27.82360  22.353    2
CT CM CM CT 9 180.0 7.94960 1  sCT   sCM   sCM   sCT     9    7.94960   6.387     1
CT CT C4 CT 9 0.0 0.62760 3  sCT   sCT   sC4   sCT     9    0.62760   0.504     3
CT CT C5 O 9 180.0 4.18400 1  sCT   sCT   sC5    sO     9    4.18400   3.361     1
CT CT C6 O2 9 180.0 0.77822 4  sCT   sCT   sC6   sO2     9    0.77822   0.625     4
CT CT C6 O2 9 180.0 1.48114 6  sCT   sCT   sC6   sO2     9    1.48114   1.190     6
CT CT C6 O2 9 180.0 3.65263 2  sCT   sCT   sC6   sO2     9    3.65263   2.934     2
CT CT C* CW 9 0.0 5.02080 1  sCT   sCT   sC*   sCW     9    5.02080   4.034     1
CT CT C N 9 0.0 0.83680 1  sCT   sCT    sC    sN     9    0.83680   0.672     1
CT CT C N 9 0.0 0.83680 2  sCT   sCT    sC    sN     9    0.83680   0.672     2
CT CT C N 9 0.0 1.67360 3  sCT   sCT    sC    sN     9    1.67360   1.345     3
CT CT CT C3 9 0.0 0.62760 3  sCT   sCT   sCT   sC3     9    0.62760   0.504     3
CT CT CT C7 9 0.0 0.75312 3  sCT   sCT   sCT   sC7     9    0.75312   0.605     3
CT CT CT C7 9 180.0 0.83680 1  sCT   sCT   sCT   sC7     9    0.83680   0.672     1
CT CT CT C7 9 180.0 1.04600 2  sCT   sCT   sCT   sC7     9    1.04600   0.840     2
CT CT CT CT 9 0.0 0.62760 3  sCT   sCT   sCT   sCT     9    0.62760   0.504     3
CT CT N C 9 0.0 1.67360 3  sCT   sCT    sN    sC     9    1.67360   1.345     3
CT CT N C 9 0.0 8.36800 1  sCT   sCT    sN    sC     9    8.36800   6.723     1
CT CT N C 9 0.0 8.36800 2  sCT   sCT    sN    sC     9    8.36800   6.723     2
CT CT OS C 9 0.0 1.60247 3  sCT   sCT   sOS    sC     9    1.60247   1.287     3
CT CT OS C 9 180.0 3.34720 1  sCT   sCT   sOS    sC     9    3.34720   2.689     1
CT CT OS CT 9 0.0 1.60247 3  sCT   sCT   sOS   sCT     9    1.60247   1.287     3
CT CT OS CT 9 180.0 0.41840 2  sCT   sCT   sOS   sCT     9    0.41840   0.336     2
CT CT SH HS 9 0.0 0.83680 3  sCT   sCT   sSH   sHS     9    0.83680   0.672     3
CT CT SH HS 9 0.0 2.09200 2  sCT   sCT   sSH   sHS     9    2.09200   1.681     2
CT OS CT N* 9 0.0 1.60247 3  sCT   sOS   sCT   sN*     9    1.60247   1.287     3
CT OS CT N* 9 0.0 2.71960 2  sCT   sOS   sCT   sN*     9    2.71960   2.185     2
CT OS CT OS 9 0.0 0.41840 3  sCT   sOS   sCT   sOS     9    0.41840   0.336     3
CT OS CT OS 9 180.0 3.55640 2  sCT   sOS   sCT   sOS     9    3.55640   2.857     2
CT OS CT OS 9 180.0 5.64840 1  sCT   sOS   sCT   sOS     9    5.64840   4.538     1
CT S S CT 9 0.0 14.64400 2  sCT    sS    sS   sCT     9    14.64400  11.765    2
CT S S CT 9 0.0 2.51040 3  sCT    sS    sS   sCT     9    2.51040   2.017     3
F CT CT F 9 180.0 5.02080 1   sF   sCT   sCT    sF     9    5.02080   4.034     1
H1 C1 C O 9 0.0 3.34720 1  sH1   sC1    sC    sO     9    3.34720   2.689     1
H1 C1 C O 9 180.0 0.33472 3  sH1   sC1    sC    sO     9    0.33472   0.269     3
H1 C7 C O 9 0.0 3.34720 1  sH1   sC7    sC    sO     9    3.34720   2.689     1
H1 C7 C O 9 180.0 0.33472 3  sH1   sC7    sC    sO     9    0.33472   0.269     3
H1 CT C O 9 0.0 3.34720 1  sH1   sCT    sC    sO     9    3.34720   2.689     1
H1 CT C O 9 180.0 0.33472 3  sH1   sCT    sC    sO     9    0.33472   0.269     3
H1 C1 C OB 9 0.0 3.34720 1  sH1   sC1    sC   sOB     9    3.34720   2.689     1
H1 C1 C OB 9 180.0 0.33472 3  sH1   sC1    sC   sOB     9    0.33472   0.269     3
H1 C7 C OB 9 0.0 3.34720 1  sH1   sC7    sC   sOB     9    3.34720   2.689     1
H1 C7 C OB 9 180.0 0.33472 3  sH1   sC7    sC   sOB     9    0.33472   0.269     3
H1 CT C OB 9 0.0 3.34720 1  sH1   sCT    sC   sOB     9    3.34720   2.689     1
H1 CT C OB 9 180.0 0.33472 3  sH1   sCT    sC   sOB     9    0.33472   0.269     3
H1 CT CT Br 9 0.0 2.30120 1  sH1   sCT   sCT   sBr     9    2.30120   1.849     1
H1 CT CT Cl 9 0.0 1.04600 1  sH1   sCT   sCT   sCl     9    1.04600   0.840     1
H1 CT CT F 9 0.0 0.79496 1  sH1   sCT   sCT    sF     9    0.79496   0.639     1
H1 CT CT OH 9 0.0 1.04600 1  sH1   sCT   sCT   sOH     9    1.04600   0.840     1
H1 CT CT OS 9 0.0 1.04600 1  sH1   sCT   sCT   sOS     9    1.04600   0.840     1
HC C3 CT CT 9 0.0 0.66944 3  sHC   sC3   sCT   sCT     9    0.66944   0.538     3
HC C4 CT CT 9 0.0 0.66944 3  sHC   sC4   sCT   sCT     9    0.66944   0.538     3
HC C4 CT HC 9 0.0 0.62760 3  sHC   sC4   sCT   sHC     9    0.62760   0.504     3
HC CT C3 HC 9 0.0 0.62760 3  sHC   sCT   sC3   sHC     9    0.62760   0.504     3
HC CT C4 CT 9 0.0 0.66944 3  sHC   sCT   sC4   sCT     9    0.66944   0.538     3
HC CT C5 O 9 0.0 3.34720 1  sHC   sCT   sC5    sO     9    3.34720   2.689     1
HC CT C5 O 9 180.0 0.33472 3  sHC   sCT   sC5    sO     9    0.33472   0.269     3
HC CT CM CM 9 0.0 4.81160 1  sHC   sCT   sCM   sCM     9    4.81160   3.866     1
HC CT CM CM 9 180.0 1.58992 3  sHC   sCT   sCM   sCM     9    1.58992   1.277     3
HC CT C O 9 0.0 3.34720 1  sHC   sCT    sC    sO     9    3.34720   2.689     1
HC CT C O 9 180.0 0.33472 3  sHC   sCT    sC    sO     9    0.33472   0.269     3
HC CT C OB 9 0.0 3.34720 1  sHC   sCT    sC   sOB     9    3.34720   2.689     1
HC CT C OB 9 180.0 0.33472 3  sHC   sCT    sC   sOB     9    0.33472   0.269     3
HC CT CT Br 9 0.0 2.30120 1  sHC   sCT   sCT   sBr     9    2.30120   1.849     1
HC CT CT C3 9 0.0 0.66944 3  sHC   sCT   sCT   sC3     9    0.66944   0.538     3
HC CT CT C4 9 0.0 0.66944 3  sHC   sCT   sCT   sC4     9    0.66944   0.538     3
HC CT CT C7 9 0.0 0.66944 3  sHC   sCT   sCT   sC7     9    0.66944   0.538     3
HC CT CT Cl 9 0.0 1.04600 1  sHC   sCT   sCT   sCl     9    1.04600   0.840     1
HC CT CT CT 9 0.0 0.66944 3  sHC   sCT   sCT   sCT     9    0.66944   0.538     3
HC CT CT F 9 0.0 0.79496 1  sHC   sCT   sCT    sF     9    0.79496   0.639     1
HC CT CT HC 9 0.0 0.62760 3  sHC   sCT   sCT   sHC     9    0.62760   0.504     3
HC CT CT OH 9 0.0 1.04600 1  sHC   sCT   sCT   sOH     9    1.04600   0.840     1
HC CT CT OS 9 0.0 1.04600 1  sHC   sCT   sCT   sOS     9    1.04600   0.840     1
H N C5 O 9 0.0 8.36800 1   sH    sN   sC5    sO     9    8.36800   6.723     1
H N C5 O 9 180.0 10.46000 2   sH    sN   sC5    sO     9    10.46000  8.403     2
H N C O 9 0.0 8.36800 1   sH    sN    sC    sO     9    8.36800   6.723     1
H N C O 9 180.0 10.46000 2   sH    sN    sC    sO     9    10.46000  8.403     2
HB N C OB 9 0.0 8.36800 1  sHB    sN    sC   sOB     9    8.36800   6.723     1
HB N C OB 9 180.0 10.46000 2  sHB    sN    sC   sOB     9    10.46000  8.403     2
HO O3 C8 CT 9 0.0 0.35982 1  sHO   sO3   sC8   sCT     9    0.35982   0.289     1
HO O3 C8 CT 9 0.0 0.41840 3  sHO   sO3   sC8   sCT     9    0.41840   0.336     3
HO O3 C8 CT 9 180.0 0.68199 2  sHO   sO3   sC8   sCT     9    0.68199   0.548     2
HO O3 C8 H1 9 0.0 0.41840 3  sHO   sO3   sC8   sH1     9    0.41840   0.336     3
HO OH C8 CT 9 0.0 0.25104 2  sHO   sOH   sC8   sCT     9    0.25104   0.202     2
HO OH C8 CT 9 0.0 0.83680 3  sHO   sOH   sC8   sCT     9    0.83680   0.672     3
HO OH C8 CT 9 0.0 3.13800 1  sHO   sOH   sC8   sCT     9    3.13800   2.521     1
HO OH C O 9 0.0 7.94960 1  sHO   sOH    sC    sO     9    7.94960   6.387     1
HO OH C O 9 180.0 9.62320 2  sHO   sOH    sC    sO     9    9.62320   7.731     2
HO OH CT CT 9 0.0 0.66944 3  sHO   sOH   sCT   sCT     9    0.66944   0.538     3
HO OH CT CT 9 0.0 1.04600 1  sHO   sOH   sCT   sCT     9    1.04600   0.840     1
N3 CT CT C3 9 0.0 0.81630 1  sN3   sCT   sCT   sC3     9    0.81630   0.656     1
N3 CT CT C3 9 180.0 3.53925 2  sN3   sCT   sCT   sC3     9    3.53925   2.843     2
N3 CT CT C6 9 180.0 11.02568 1  sN3   sCT   sCT   sC6     9    11.02568  8.858     1
N3 CT CT C6 9 180.0 4.98022 2  sN3   sCT   sCT   sC6     9    4.98022   4.001     2
N3 CT CT C6 9 180.0 0.02845 3  sN3   sCT   sCT   sC6     9    0.02845   0.023     3
N3 CT CT C6 9 0.0 1.76858 4  sN3   sCT   sCT   sC6     9    1.76858   1.421     4
N3 CT CT C6 9 0.0 0.96943 5  sN3   sCT   sCT   sC6     9    0.96943   0.779     5
N3 CT CT C6 9 180.0 0.89009 6  sN3   sCT   sCT   sC6     9    0.89009   0.715     6
N C1 C N 9 180.0 2.69445 1   sN   sC1    sC    sN     9    2.69445   2.165     1
N C1 C N 9 180.0 6.68666 2   sN   sC1    sC    sN     9    6.68666   5.372     2
N C1 C N 9 180.0 1.67111 3   sN   sC1    sC    sN     9    1.67111   1.343     3
N C1 C N 9 0.0 0.31419 4   sN   sC1    sC    sN     9    0.31419   0.252     4
N C5 CT CT 9 180.0 4.37772 1   sN   sC5   sCT   sCT     9    4.37772   3.517     1
N C5 CT CT 9 180.0 0.75730 2   sN   sC5   sCT   sCT     9    0.75730   0.608     2
N C5 CT CT 9 180.0 0.14811 3   sN   sC5   sCT   sCT     9    0.14811   0.119     3
N C5 CT CT 9 0.0 0.41966 4   sN   sC5   sCT   sCT     9    0.41966   0.337     4
N C5 CT CT 9 0.0 0.54308 5   sN   sC5   sCT   sCT     9    0.54308   0.436     5
N C5 CT CT 9 180.0 0.44373 6   sN   sC5   sCT   sCT     9    0.44373   0.356     6
N C7 C N 9 180.0 1.88280 1   sN   sC7    sC    sN     9    1.88280   1.513     1
N C7 C N 9 180.0 6.61072 2   sN   sC7    sC    sN     9    6.61072   5.311     2
N C7 C N 9 180.0 2.30120 3   sN   sC7    sC    sN     9    2.30120   1.849     3
N CT C8 CT 9 0.0 0.25104 1   sN   sCT   sC8   sCT     9    0.25104   0.202     1
N CT C8 CT 9 180.0 2.09200 2   sN   sCT   sC8   sCT     9    2.09200   1.681     2
N CT C8 CT 9 0.0 0.62760 3   sN   sCT   sC8   sCT     9    0.62760   0.504     3
N CT C8 CT 9 180.0 0.27196 4   sN   sCT   sC8   sCT     9    0.27196   0.218     4
N CT C8 O3 9 180.0 0.33472 1   sN   sCT   sC8   sO3     9    0.33472   0.269     1
N CT C8 OH 9 180.0 1.04600 1   sN   sCT   sC8   sOH     9    1.04600   0.840     1
N CT C N 9 360.0 0.82425 1   sN   sCT    sC    sN     9    0.82425   0.662     1
N CT C N 9 180.0 6.04588 2   sN   sCT    sC    sN     9    6.04588   4.857     2
N CT C N 9 180.0 2.00414 3   sN   sCT    sC    sN     9    2.00414   1.610     3
N CT C N 9 360.0 0.07991 4   sN   sCT    sC    sN     9    0.07991   0.064     4
N CT C N 9 360.0 0.01674 5   sN   sCT    sC    sN     9    0.01674   0.013     5
N CT CT C3 9 0.0 0.81630 1   sN   sCT   sCT   sC3     9    0.81630   0.656     1
N CT CT C3 9 180.0 3.53925 2   sN   sCT   sCT   sC3     9    3.53925   2.843     2
N CT CT C5 9 180.0 2.63592 1   sN   sCT   sCT   sC5     9    2.63592   2.118     1
N CT CT C6 9 180.0 12.05410 1   sN   sCT   sCT   sC6     9    12.05410  9.684     1
N CT CT C6 9 180.0 5.06682 2   sN   sCT   sCT   sC6     9    5.06682   4.071     2
N CT CT C6 9 0.0 0.25941 3   sN   sCT   sCT   sC6     9    0.25941   0.208     3
N CT CT C6 9 0.0 1.02508 4   sN   sCT   sCT   sC6     9    1.02508   0.824     4
N CT CT C6 9 0.0 0.54810 5   sN   sCT   sCT   sC6     9    0.54810   0.440     5
N CT CT C6 9 180.0 0.59413 6   sN   sCT   sCT   sC6     9    0.59413   0.477     6
N CT CT C9 9 0.0 0.41840 1   sN   sCT   sCT   sC9     9    0.41840   0.336     1
N CT CT CC 9 180.0 1.67360 1   sN   sCT   sCT   sCC     9    1.67360   1.345     1
N CT CT SH 9 180.0 2.30120 1   sN   sCT   sCT   sSH     9    2.30120   1.849     1
N CT CT SH 9 180.0 2.63592 2   sN   sCT   sCT   sSH     9    2.63592   2.118     2
N CT CT SH 9 180.0 0.25104 3   sN   sCT   sCT   sSH     9    0.25104   0.202     3
N CT CT SH 9 180.0 0.12552 4   sN   sCT   sCT   sSH     9    0.12552   0.101     4
O C OS CT 9 180.0 5.85760 1   sO    sC   sOS   sCT     9    5.85760   4.706     1
O C OS CT 9 180.0 11.29680 2   sO    sC   sOS   sCT     9    11.29680  9.076     2
OH CT CT OH 9 0.0 0.60250 3  sOH   sCT   sCT   sOH     9    0.60250   0.484     3
OH CT CT OH 9 0.0 4.91620 2  sOH   sCT   sCT   sOH     9    4.91620   3.950     2
OH P OS CT 9 0.0 1.04600 3  sOH    sP   sOS   sCT     9    1.04600   0.840     3
OH P OS CT 9 0.0 5.02080 2  sOH    sP   sOS   sCT     9    5.02080   4.034     2
OS CT CT OH 9 0.0 0.60250 3  sOS   sCT   sCT   sOH     9    0.60250   0.484     3
OS CT CT OH 9 0.0 4.91620 2  sOS   sCT   sCT   sOH     9    4.91620   3.950     2
OS CT CT OS 9 0.0 4.91620 2  sOS   sCT   sCT   sOS     9    4.91620   3.950     2
OS CT CT OS 9 0.0 0.60250 3  sOS   sCT   sCT   sOS     9    0.60250   0.484     3
OS CT N* CK 9 0.0 10.46000 1  sOS   sCT   sN*   sCK     9    10.46000  8.403     1
OS CT N* CM 9 0.0 10.46000 1  sOS   sCT   sN*   sCM     9    10.46000  8.403     1
OS P OS CT 9 0.0 5.02080 2  sOS    sP   sOS   sCT     9    5.02080   4.034     2
OS P OS CT 9 0.0 1.04600 3  sOS    sP   sOS   sCT     9    1.04600   0.840     3
N CT CT CA 9 0.0 0.00000 0   sN   sCT   sCT   sCA     9    0.00000   0.000     0
N CT CT C* 9 0.0 0.00000 0   sN   sCT   sCT   sC*     9    0.00000   0.000     0
CT CT C9 S 9 0.0 0.00000 0  sCT   sCT   sC9    sS     9    0.00000   0.000     0
CT CT C9 CT 9 0.0 0.00000 0  sCT   sCT   sC9   sCT     9    0.00000   0.000     0
X C1 N3 X 9 0.0 0.65084 3    X   sC1   sN3     X     9    0.65084   0.523     3
X C5 N X 9 180.0 10.46000 2    X   sC5    sN     X     9    10.46000  8.403     2
X C7 CT X 9 0.0 0.65084 3    X   sC7   sCT     X     9    0.65084   0.523     3
X C7 N3 X 9 0.0 0.65084 3    X   sC7   sN3     X     9    0.65084   0.523     3
X C8 O3 X 9 0.0 0.69873 3    X   sC8   sO3     X     9    0.69873   0.561     3
X C8 OH X 9 0.0 0.69873 3    X   sC8   sOH     X     9    0.69873   0.561     3
X C9 S X 9 0.0 1.39327 3    X   sC9    sS     X     9    1.39327   1.119     3
X CA CA X 9 180.0 15.16700 2    X   sCA   sCA     X     9    15.16700  12.185    2
X CA CB X 9 180.0 14.64400 2    X   sCA   sCB     X     9    14.64400  11.765    2
X CA CM X 9 180.0 10.66920 2    X   sCA   sCM     X     9    10.66920  8.571     2
X CA CN X 9 180.0 15.16700 2    X   sCA   sCN     X     9    15.16700  12.185    2
X CA N2 X 9 180.0 10.04160 2    X   sCA   sN2     X     9    10.04160  8.067     2
X CA NA X 9 180.0 6.27600 2    X   sCA   sNA     X     9    6.27600   5.042     2
X CA NC X 9 180.0 20.08320 2    X   sCA   sNC     X     9    20.08320  16.134    2
X CA OH X 9 180.0 3.76560 2    X   sCA   sOH     X     9    3.76560   3.025     2
X CB CB X 9 180.0 22.80280 2    X   sCB   sCB     X     9    22.80280  18.319    2
X CB CN X 9 180.0 12.55200 2    X   sCB   sCN     X     9    12.55200  10.084    2
X CB NB X 9 180.0 10.66920 2    X   sCB   sNB     X     9    10.66920  8.571     2
X CB NC X 9 180.0 17.36360 2    X   sCB   sNC     X     9    17.36360  13.950    2
X CB N* X 9 180.0 6.90360 2    X   sCB   sN*     X     9    6.90360   5.546     2
X C CA X 9 180.0 15.16700 2    X    sC   sCA     X     9    15.16700  12.185    2
X C CB X 9 180.0 12.55200 2    X    sC   sCB     X     9    12.55200  10.084    2
X C* CB X 9 180.0 7.00820 2    X   sC*   sCB     X     9    7.00820   5.630     2
X CC CV X 9 180.0 21.54760 2    X   sCC   sCV     X     9    21.54760  17.311    2
X CC CW X 9 180.0 22.48900 2    X   sCC   sCW     X     9    22.48900  18.067    2
X C CM X 9 180.0 9.10020 2    X    sC   sCM     X     9    9.10020   7.311     2
X CC NA X 9 180.0 5.85760 2    X   sCC   sNA     X     9    5.85760   4.706     2
X CC NB X 9 180.0 10.04160 2    X   sCC   sNB     X     9    10.04160  8.067     2
X C* CW X 9 180.0 27.30060 2    X   sC*   sCW     X     9    27.30060  21.933    2
X C C X 9 180.0 15.16700 2    X    sC    sC     X     9    15.16700  12.185    2
X CK NB X 9 180.0 41.84000 2    X   sCK   sNB     X     9    41.84000  33.613    2
X CK N* X 9 180.0 7.11280 2    X   sCK   sN*     X     9    7.11280   5.714     2
X CM CM X 9 180.0 27.82360 2    X   sCM   sCM     X     9    27.82360  22.353    2
X CM N* X 9 180.0 7.74040 2    X   sCM   sN*     X     9    7.74040   6.218     2
X CM OS X 9 180.0 4.39320 2    X   sCM   sOS     X     9    4.39320   3.529     2
X C NA X 9 180.0 5.64840 2    X    sC   sNA     X     9    5.64840   4.538     2
X C NC X 9 180.0 16.73600 2    X    sC   sNC     X     9    16.73600  13.445    2
X CN NA X 9 180.0 6.38060 2    X   sCN   sNA     X     9    6.38060   5.126     2
X C N X 9 180.0 10.46000 2    X    sC    sN     X     9    10.46000  8.403     2
X C N* X 9 180.0 6.06680 2    X    sC   sN*     X     9    6.06680   4.874     2
X C OH X 9 180.0 9.62320 2    X    sC   sOH     X     9    9.62320   7.731     2
X C OS X 9 180.0 11.29680 2    X    sC   sOS     X     9    11.29680  9.076     2
X C O X 9 180.0 11.71520 2    X    sC    sO     X     9    11.71520  9.412     2
X C OB X 9 180.0 11.71520 2    X    sC   sOB     X     9    11.71520  9.412     2
X CQ NC X 9 180.0 28.45120 2    X   sCQ   sNC     X     9    28.45120  22.857    2
X CR NA X 9 180.0 9.72780 2    X   sCR   sNA     X     9    9.72780   7.815     2
X CR NB X 9 180.0 20.92000 2    X   sCR   sNB     X     9    20.92000  16.807    2
X CT C8 X 9 0.0 0.64852 3    X   sCT   sC8     X     9    0.64852   0.521     3
X CT C9 X 9 0.0 0.64852 3    X   sCT   sC9     X     9    0.64852   0.521     3
X CT CT X 9 0.0 0.65084 3    X   sCT   sCT     X     9    0.65084   0.523     3
X CT N3 X 9 0.0 0.65084 3    X   sCT   sN3     X     9    0.65084   0.523     3
X CT OH X 9 0.0 0.69733 3    X   sCT   sOH     X     9    0.69733   0.560     3
X CT OS X 9 0.0 1.60387 3    X   sCT   sOS     X     9    1.60387   1.289     3
X CT SH X 9 0.0 1.04600 3    X   sCT   sSH     X     9    1.04600   0.840     3
X CT S X 9 0.0 1.39467 3    X   sCT    sS     X     9    1.39467   1.120     3
X CV NB X 9 180.0 10.04160 2    X   sCV   sNB     X     9    10.04160  8.067     2
X CW NA X 9 180.0 6.27600 2    X   sCW   sNA     X     9    6.27600   5.042     2
X OH P X 9 0.0 1.04600 3    X   sOH    sP     X     9    1.04600   0.840     3
X OS P X 9 0.0 1.04600 3    X   sOS    sP     X     9    1.04600   0.840     3
X C1 N X 9 0.0 0.00000 0    X   sC1    sN     X     9    0.00000   0.000     0
X C C1 X 9 0.0 0.00000 0    X    sC   sC1     X     9    0.00000   0.000     0
X C C9 X 9 0.0 0.00000 0    X    sC   sC9     X     9    0.00000   0.000     0
X C CT X 9 0.0 0.00000 0    X    sC   sCT     X     9    0.00000   0.000     0
X CA CT X 9 0.0 0.00000 0    X   sCA   sCT     X     9    0.00000   0.000     0
X CC CT X 9 0.0 0.00000 0    X   sCC   sCT     X     9    0.00000   0.000     0
X CM CT X 9 0.0 0.00000 0    X   sCM   sCT     X     9    0.00000   0.000     0
X CT N X 9 0.0 0.00000 0    X   sCT    sN     X     9    0.00000   0.000     0
X CT N* X 9 0.0 0.00000 0    X   sCT   sN*     X     9    0.00000   0.000     0
X CT N2 X 9 0.0 0.00000 0    X   sCT   sN2     X     9    0.00000   0.000     0
X C* CT X 9 0.0 0.00000 0    X   sC*   sCT     X     9    0.00000   0.000     0
X C7 N X 9 0.0 0.00000 0    X   sC7    sN     X     9    0.00000   0.000     0
X C C7 X 9 0.0 0.00000 0    X    sC   sC7     X     9    0.00000   0.000     0
X C5 CT X 9 0.0 0.00000 0    X   sC5   sCT     X     9    0.00000   0.000     0
X C6 CT X 9 0.0 0.00000 0    X   sC6   sCT     X     9    0.00000   0.000     0
C C1 N O 4 180.0 4.60240 2   sC   sC1    sN    sO     4    4.60240   3.437     2
C C1 N OB 4 180.0 4.60240 2   sC   sC1    sN   sOB     4    4.60240   3.437     2
C C1 N H 4 180.0 4.60240 2   sC   sC1    sN    sH     4    4.60240   3.437     2
C C1 N HB 4 180.0 4.60240 2   sC   sC1    sN   sHB     4    4.60240   3.437     2
C9 O C OH 4 180.0 43.93200 2  sC9    sO    sC   sOH     4    43.93200  32.810    2
CB CK N* CT 4 180.0 4.18400 2  sCB   sCK   sN*   sCT     4    4.18400   3.125     2
C CM N* CT 4 180.0 4.18400 2   sC   sCM   sN*   sCT     4    4.18400   3.125     2
CT O C OH 4 180.0 43.93200 2  sCT    sO    sC   sOH     4    43.93200  32.810    2
CT CV CC NA 4 180.0 4.60240 2  sCT   sCV   sCC   sNA     4    4.60240   3.437     2
CT CW CC NB 4 180.0 4.60240 2  sCT   sCW   sCC   sNB     4    4.60240   3.437     2
CT CC CW NB 4 180.0 4.60240 2  sCT   sCC   sCW   sNB     4    4.60240   3.437     2
CT CW CC NA 4 180.0 4.60240 2  sCT   sCW   sCC   sNA     4    4.60240   3.437     2
CB CT C* CW 4 180.0 4.60240 2  sCB   sCT   sC*   sCW     4    4.60240   3.437     2
CA CA CA CT 4 180.0 4.60240 2  sCA   sCA   sCA   sCT     4    4.60240   3.437     2
C CM CM CT 4 180.0 4.60240 2   sC   sCM   sCM   sCT     4    4.60240   3.437     2
CM N2 CA NC 4 180.0 4.60240 2  sCM   sN2   sCA   sNC     4    4.60240   3.437     2
CB N2 CA NC 4 180.0 4.60240 2  sCB   sN2   sCA   sNC     4    4.60240   3.437     2
N2 NA CA NC 4 180.0 4.60240 2  sN2   sNA   sCA   sNC     4    4.60240   3.437     2
CA CA C OH 4 180.0 4.60240 2  sCA   sCA    sC   sOH     4    4.60240   3.437     2
CA CA CA OH 4 180.0 4.60240 2  sCA   sCA   sCA   sOH     4    4.60240   3.437     2
H5 O C OH 4 180.0 4.60240 2  sH5    sO    sC   sOH     4    4.60240   3.437     2
H5 O C OS 4 180.0 4.60240 2  sH5    sO    sC   sOS     4    4.60240   3.437     2
CM CT CM HA 4 180.0 4.60240 2  sCM   sCT   sCM   sHA     4    4.60240   3.437     2
Br CA CA CA 4 180.0 4.60240 2  sBr   sCA   sCA   sCA     4    4.60240   3.437     2
CM H4 C O 4 180.0 4.60240 2  sCM   sH4    sC    sO     4    4.60240   3.437     2
C CT N H 4 180.0 4.60240 2   sC   sCT    sN    sH     4    4.60240   3.437     2
C CT N HB 4 180.0 4.60240 2   sC   sCT    sN   sHB     4    4.60240   3.437     2
C CT N O 4 180.0 4.60240 2   sC   sCT    sN    sO     4    4.60240   3.437     2
C C7 N O 4 180.0 4.60240 2   sC   sC7    sN    sO     4    4.60240   3.437     2
C CT N OB 4 180.0 4.60240 2   sC   sCT    sN   sOB     4    4.60240   3.437     2
C C7 N OB 4 180.0 4.60240 2   sC   sC7    sN   sOB     4    4.60240   3.437     2
C C7 N H 4 180.0 4.60240 2   sC   sC7    sN    sH     4    4.60240   3.437     2
C C7 N HB 4 180.0 4.60240 2   sC   sC7    sN   sHB     4    4.60240   3.437     2
C5 CT N O 4 180.0 4.60240 2  sC5   sCT    sN    sO     4    4.60240   3.437     2
C5 CT N OB 4 180.0 4.60240 2  sC5   sCT    sN   sOB     4    4.60240   3.437     2
C5 CT N H 4 180.0 4.60240 2  sC5   sCT    sN    sH     4    4.60240   3.437     2
C5 CT N HB 4 180.0 4.60240 2  sC5   sCT    sN   sHB     4    4.60240   3.437     2
X CT N C1 4 180.0 4.18400 2    X   sCT    sN   sC1     4    4.18400   3.125     2
X CT N C7 4 180.0 4.18400 2    X   sCT    sN   sC7     4    4.18400   3.125     2
X O2 C6 O2 4 180.0 43.93200 2    X   sO2   sC6   sO2     4    43.93200  32.810    2
X O2 C O2 4 180.0 43.93200 2    X   sO2    sC   sO2     4    43.93200  32.810    2
X N2 CA N2 4 180.0 43.93200 2    X   sN2   sCA   sN2     4    43.93200  32.810    2
X CT N CT 4 180.0 4.18400 2    X   sCT    sN   sCT     4    4.18400   3.125     2
X X C O 4 180.0 43.93200 2    X     X    sC    sO     4    43.93200  32.810    2
X X C OB 4 180.0 43.93200 2    X     X    sC   sOB     4    43.93200  32.810    2
X X N H 4 180.0 4.18400 2    X     X    sN    sH     4    4.18400   3.125     2
X X N2 H 4 180.0 4.18400 2    X     X   sN2    sH     4    4.18400   3.125     2
X X NA H 4 180.0 4.18400 2    X     X   sNA    sH     4    4.18400   3.125     2
X X CA HA 4 180.0 4.60240 2    X     X   sCA   sHA     4    4.60240   3.437     2
X X CW H4 4 180.0 4.60240 2    X     X   sCW   sH4     4    4.60240   3.437     2
X X CR H5 4 180.0 4.60240 2    X     X   sCR   sH5     4    4.60240   3.437     2
X X CV H4 4 180.0 4.60240 2    X     X   sCV   sH4     4    4.60240   3.437     2
X X CQ H5 4 180.0 4.60240 2    X     X   sCQ   sH5     4    4.60240   3.437     2
X X CK H5 4 180.0 4.60240 2    X     X   sCK   sH5     4    4.60240   3.437     2
X X CM H4 4 180.0 4.60240 2    X     X   sCM   sH4     4    4.60240   3.437     2
X X CM HA 4 180.0 4.60240 2    X     X   sCM   sHA     4    4.60240   3.437     2
X X CA H4 4 180.0 4.60240 2    X     X   sCA   sH4     4    4.60240   3.437     2
X X CA H5 4 180.0 4.60240 2    X     X   sCA   sH5     4    4.60240   3.437     2
X X C5 O 4 180.0 43.93200 2    X     X   sC5    sO     4    43.93200  32.810    2
C8 CT C N 9 0.0 0.83680 1  sC8   sCT    sC    sN     9    0.83680   0.625     1
C8 CT C N 9 0.0 0.83680 2  sC8   sCT    sC    sN     9    0.83680   0.625     2
C8 CT C N 9 0.0 1.67360 3  sC8   sCT    sC    sN     9    1.67360   1.250     3
C8 CT N C 9 0.0 8.36800 1  sC8   sCT    sN    sC     9    8.36800   6.250     1
C8 CT N C 9 0.0 8.36800 2  sC8   sCT    sN    sC     9    8.36800   6.250     2
C8 CT N C 9 0.0 1.67360 3  sC8   sCT    sN    sC     9    1.67360   1.250     3
C CT C8 O3 9 180.0 4.18400 1   sC   sCT   sC8   sO3     9    4.18400   3.125     1
C CT C8 OH 9 180.0 3.76560 1   sC   sCT   sC8   sOH     9    3.76560   2.812     1
C CT CT C4 9 0.0 2.39074 1   sC   sCT   sCT   sC4     9    2.39074   1.786     1
C CT CT C4 9 180.0 1.49913 2   sC   sCT   sCT   sC4     9    1.49913   1.120     2
C CT CT C4 9 0.0 0.56400 3   sC   sCT   sCT   sC4     9    0.56400   0.421     3
C CT CT C5 9 0.0 0.71421 1   sC   sCT   sCT   sC5     9    0.71421   0.533     1
C CT CT C5 9 180.0 2.49241 2   sC   sCT   sCT   sC5     9    2.49241   1.861     2
C CT CT C5 9 0.0 0.49580 3   sC   sCT   sCT   sC5     9    0.49580   0.370     3
C CT CT C5 9 180.0 1.74556 4   sC   sCT   sCT   sC5     9    1.74556   1.304     4
C CT CT C5 9 0.0 0.43597 5   sC   sCT   sCT   sC5     9    0.43597   0.326     5
C CT CT C5 9 180.0 0.42142 6   sC   sCT   sCT   sC5     9    0.42142   0.315     6
C CT CT C* 9 0.0 1.21336 1   sC   sCT   sCT   sC*     9    1.21336   0.906     1
C CT CT C9 9 0.0 1.25520 1   sC   sCT   sCT   sC9     9    1.25520   0.937     1
C CT CT CA 9 0.0 2.17568 1   sC   sCT   sCT   sCA     9    2.17568   1.625     1
C CT CT CC 9 0.0 2.92880 1   sC   sCT   sCT   sCC     9    2.92880   2.187     1
C CT CT SH 9 180.0 0.66944 1   sC   sCT   sCT   sSH     9    0.66944   0.500     1
Cl CT CT Cl 9 180.0 1.88280 1  sCl   sCT   sCT   sCl     9    1.88280   1.406     1
CM CM C O 9 180.0 9.10020 2  sCM   sCM    sC    sO     9    9.10020   6.796     2
CM CM C O 9 0.0 1.25520 3  sCM   sCM    sC    sO     9    1.25520   0.937     3
C N C1 C 9 0.0 0.35267 1   sC    sN   sC1    sC     9    0.35267   0.263     1
C N C1 C 9 0.0 1.59541 2   sC    sN   sC1    sC     9    1.59541   1.192     2
C N C1 C 9 180.0 0.08381 3   sC    sN   sC1    sC     9    0.08381   0.063     3
C N C1 C 9 0.0 0.32396 4   sC    sN   sC1    sC     9    0.32396   0.242     4
C N C7 C 9 0.0 1.12968 2   sC    sN   sC7    sC     9    1.12968   0.844     2
C N C7 C 9 0.0 1.75728 3   sC    sN   sC7    sC     9    1.75728   1.312     3
C N CT C 9 180.0 0.14226 1   sC    sN   sCT    sC     9    0.14226   0.106     1
C N CT C 9 0.0 1.40164 2   sC    sN   sCT    sC     9    1.40164   1.047     2
C N CT C 9 0.0 2.27610 3   sC    sN   sCT    sC     9    2.27610   1.700     3
C N CT C 9 0.0 0.33472 4   sC    sN   sCT    sC     9    0.33472   0.250     4
CT C7 C N 9 0.0 0.83680 1  sCT   sC7    sC    sN     9    0.83680   0.625     1
CT C7 C N 9 0.0 0.83680 2  sCT   sC7    sC    sN     9    0.83680   0.625     2
CT C7 C N 9 0.0 1.67360 3  sCT   sC7    sC    sN     9    1.67360   1.250     3
CT C7 N C 9 0.0 8.36800 1  sCT   sC7    sN    sC     9    8.36800   6.250     1
CT C7 N C 9 0.0 8.36800 2  sCT   sC7    sN    sC     9    8.36800   6.250     2
CT C7 N C 9 0.0 1.67360 3  sCT   sC7    sN    sC     9    1.67360   1.250     3
CT C9 C O2 9 180.0 2.51040 2  sCT   sC9    sC   sO2     9    2.51040   1.875     2
CT C9 C O 9 180.0 2.51040 2  sCT   sC9    sC    sO     9    2.51040   1.875     2
CT C9 C OB 9 180.0 2.51040 2  sCT   sC9    sC   sOB     9    2.51040   1.875     2
CT CM CM CT 9 180.0 27.82360 2  sCT   sCM   sCM   sCT     9    27.82360  20.780    2
CT CM CM CT 9 180.0 7.94960 1  sCT   sCM   sCM   sCT     9    7.94960   5.937     1
CT CT C4 CT 9 0.0 0.62760 3  sCT   sCT   sC4   sCT     9    0.62760   0.469     3
CT CT C5 O 9 180.0 4.18400 1  sCT   sCT   sC5    sO     9    4.18400   3.125     1
CT CT C6 O2 9 180.0 0.77822 4  sCT   sCT   sC6   sO2     9    0.77822   0.581     4
CT CT C6 O2 9 180.0 1.48114 6  sCT   sCT   sC6   sO2     9    1.48114   1.106     6
CT CT C6 O2 9 180.0 3.65263 2  sCT   sCT   sC6   sO2     9    3.65263   2.728     2
CT CT C* CW 9 0.0 5.02080 1  sCT   sCT   sC*   sCW     9    5.02080   3.750     1
CT CT C N 9 0.0 0.83680 1  sCT   sCT    sC    sN     9    0.83680   0.625     1
CT CT C N 9 0.0 0.83680 2  sCT   sCT    sC    sN     9    0.83680   0.625     2
CT CT C N 9 0.0 1.67360 3  sCT   sCT    sC    sN     9    1.67360   1.250     3
CT CT CT C3 9 0.0 0.62760 3  sCT   sCT   sCT   sC3     9    0.62760   0.469     3
CT CT CT C7 9 0.0 0.75312 3  sCT   sCT   sCT   sC7     9    0.75312   0.562     3
CT CT CT C7 9 180.0 0.83680 1  sCT   sCT   sCT   sC7     9    0.83680   0.625     1
CT CT CT C7 9 180.0 1.04600 2  sCT   sCT   sCT   sC7     9    1.04600   0.781     2
CT CT CT CT 9 0.0 0.62760 3  sCT   sCT   sCT   sCT     9    0.62760   0.469     3
CT CT N C 9 0.0 1.67360 3  sCT   sCT    sN    sC     9    1.67360   1.250     3
CT CT N C 9 0.0 8.36800 1  sCT   sCT    sN    sC     9    8.36800   6.250     1
CT CT N C 9 0.0 8.36800 2  sCT   sCT    sN    sC     9    8.36800   6.250     2
CT CT OS C 9 0.0 1.60247 3  sCT   sCT   sOS    sC     9    1.60247   1.197     3
CT CT OS C 9 180.0 3.34720 1  sCT   sCT   sOS    sC     9    3.34720   2.500     1
CT CT OS CT 9 0.0 1.60247 3  sCT   sCT   sOS   sCT     9    1.60247   1.197     3
CT CT OS CT 9 180.0 0.41840 2  sCT   sCT   sOS   sCT     9    0.41840   0.312     2
CT CT SH HS 9 0.0 0.83680 3  sCT   sCT   sSH   sHS     9    0.83680   0.625     3
CT CT SH HS 9 0.0 2.09200 2  sCT   sCT   sSH   sHS     9    2.09200   1.562     2
CT OS CT N* 9 0.0 1.60247 3  sCT   sOS   sCT   sN*     9    1.60247   1.197     3
CT OS CT N* 9 0.0 2.71960 2  sCT   sOS   sCT   sN*     9    2.71960   2.031     2
CT OS CT OS 9 0.0 0.41840 3  sCT   sOS   sCT   sOS     9    0.41840   0.312     3
CT OS CT OS 9 180.0 3.55640 2  sCT   sOS   sCT   sOS     9    3.55640   2.656     2
CT OS CT OS 9 180.0 5.64840 1  sCT   sOS   sCT   sOS     9    5.64840   4.218     1
CT S S CT 9 0.0 14.64400 2  sCT    sS    sS   sCT     9    14.64400  10.937    2
CT S S CT 9 0.0 2.51040 3  sCT    sS    sS   sCT     9    2.51040   1.875     3
F CT CT F 9 180.0 5.02080 1   sF   sCT   sCT    sF     9    5.02080   3.750     1
H1 C1 C O 9 0.0 3.34720 1  sH1   sC1    sC    sO     9    3.34720   2.500     1
H1 C1 C O 9 180.0 0.33472 3  sH1   sC1    sC    sO     9    0.33472   0.250     3
H1 C7 C O 9 0.0 3.34720 1  sH1   sC7    sC    sO     9    3.34720   2.500     1
H1 C7 C O 9 180.0 0.33472 3  sH1   sC7    sC    sO     9    0.33472   0.250     3
H1 CT C O 9 0.0 3.34720 1  sH1   sCT    sC    sO     9    3.34720   2.500     1
H1 CT C O 9 180.0 0.33472 3  sH1   sCT    sC    sO     9    0.33472   0.250     3
H1 C1 C OB 9 0.0 3.34720 1  sH1   sC1    sC   sOB     9    3.34720   2.500     1
H1 C1 C OB 9 180.0 0.33472 3  sH1   sC1    sC   sOB     9    0.33472   0.250     3
H1 C7 C OB 9 0.0 3.34720 1  sH1   sC7    sC   sOB     9    3.34720   2.500     1
H1 C7 C OB 9 180.0 0.33472 3  sH1   sC7    sC   sOB     9    0.33472   0.250     3
H1 CT C OB 9 0.0 3.34720 1  sH1   sCT    sC   sOB     9    3.34720   2.500     1
H1 CT C OB 9 180.0 0.33472 3  sH1   sCT    sC   sOB     9    0.33472   0.250     3
H1 CT CT Br 9 0.0 2.30120 1  sH1   sCT   sCT   sBr     9    2.30120   1.719     1
H1 CT CT Cl 9 0.0 1.04600 1  sH1   sCT   sCT   sCl     9    1.04600   0.781     1
H1 CT CT F 9 0.0 0.79496 1  sH1   sCT   sCT    sF     9    0.79496   0.594     1
H1 CT CT OH 9 0.0 1.04600 1  sH1   sCT   sCT   sOH     9    1.04600   0.781     1
H1 CT CT OS 9 0.0 1.04600 1  sH1   sCT   sCT   sOS     9    1.04600   0.781     1
HC C3 CT CT 9 0.0 0.66944 3  sHC   sC3   sCT   sCT     9    0.66944   0.500     3
HC C4 CT CT 9 0.0 0.66944 3  sHC   sC4   sCT   sCT     9    0.66944   0.500     3
HC C4 CT HC 9 0.0 0.62760 3  sHC   sC4   sCT   sHC     9    0.62760   0.469     3
HC CT C3 HC 9 0.0 0.62760 3  sHC   sCT   sC3   sHC     9    0.62760   0.469     3
HC CT C4 CT 9 0.0 0.66944 3  sHC   sCT   sC4   sCT     9    0.66944   0.500     3
HC CT C5 O 9 0.0 3.34720 1  sHC   sCT   sC5    sO     9    3.34720   2.500     1
HC CT C5 O 9 180.0 0.33472 3  sHC   sCT   sC5    sO     9    0.33472   0.250     3
HC CT CM CM 9 0.0 4.81160 1  sHC   sCT   sCM   sCM     9    4.81160   3.594     1
HC CT CM CM 9 180.0 1.58992 3  sHC   sCT   sCM   sCM     9    1.58992   1.187     3
HC CT C O 9 0.0 3.34720 1  sHC   sCT    sC    sO     9    3.34720   2.500     1
HC CT C O 9 180.0 0.33472 3  sHC   sCT    sC    sO     9    0.33472   0.250     3
HC CT C OB 9 0.0 3.34720 1  sHC   sCT    sC   sOB     9    3.34720   2.500     1
HC CT C OB 9 180.0 0.33472 3  sHC   sCT    sC   sOB     9    0.33472   0.250     3
HC CT CT Br 9 0.0 2.30120 1  sHC   sCT   sCT   sBr     9    2.30120   1.719     1
HC CT CT C3 9 0.0 0.66944 3  sHC   sCT   sCT   sC3     9    0.66944   0.500     3
HC CT CT C4 9 0.0 0.66944 3  sHC   sCT   sCT   sC4     9    0.66944   0.500     3
HC CT CT C7 9 0.0 0.66944 3  sHC   sCT   sCT   sC7     9    0.66944   0.500     3
HC CT CT Cl 9 0.0 1.04600 1  sHC   sCT   sCT   sCl     9    1.04600   0.781     1
HC CT CT CT 9 0.0 0.66944 3  sHC   sCT   sCT   sCT     9    0.66944   0.500     3
HC CT CT F 9 0.0 0.79496 1  sHC   sCT   sCT    sF     9    0.79496   0.594     1
HC CT CT HC 9 0.0 0.62760 3  sHC   sCT   sCT   sHC     9    0.62760   0.469     3
HC CT CT OH 9 0.0 1.04600 1  sHC   sCT   sCT   sOH     9    1.04600   0.781     1
HC CT CT OS 9 0.0 1.04600 1  sHC   sCT   sCT   sOS     9    1.04600   0.781     1
H N C5 O 9 0.0 8.36800 1   sH    sN   sC5    sO     9    8.36800   6.250     1
H N C5 O 9 180.0 10.46000 2   sH    sN   sC5    sO     9    10.46000  7.812     2
H N C O 9 0.0 8.36800 1   sH    sN    sC    sO     9    8.36800   6.250     1
H N C O 9 180.0 10.46000 2   sH    sN    sC    sO     9    10.46000  7.812     2
HB N C OB 9 0.0 8.36800 1  sHB    sN    sC   sOB     9    8.36800   6.250     1
HB N C OB 9 180.0 10.46000 2  sHB    sN    sC   sOB     9    10.46000  7.812     2
HO O3 C8 CT 9 0.0 0.35982 1  sHO   sO3   sC8   sCT     9    0.35982   0.269     1
HO O3 C8 CT 9 0.0 0.41840 3  sHO   sO3   sC8   sCT     9    0.41840   0.312     3
HO O3 C8 CT 9 180.0 0.68199 2  sHO   sO3   sC8   sCT     9    0.68199   0.509     2
HO O3 C8 H1 9 0.0 0.41840 3  sHO   sO3   sC8   sH1     9    0.41840   0.312     3
HO OH C8 CT 9 0.0 0.25104 2  sHO   sOH   sC8   sCT     9    0.25104   0.187     2
HO OH C8 CT 9 0.0 0.83680 3  sHO   sOH   sC8   sCT     9    0.83680   0.625     3
HO OH C8 CT 9 0.0 3.13800 1  sHO   sOH   sC8   sCT     9    3.13800   2.344     1
HO OH C O 9 0.0 7.94960 1  sHO   sOH    sC    sO     9    7.94960   5.937     1
HO OH C O 9 180.0 9.62320 2  sHO   sOH    sC    sO     9    9.62320   7.187     2
HO OH CT CT 9 0.0 0.66944 3  sHO   sOH   sCT   sCT     9    0.66944   0.500     3
HO OH CT CT 9 0.0 1.04600 1  sHO   sOH   sCT   sCT     9    1.04600   0.781     1
N3 CT CT C3 9 0.0 0.81630 1  sN3   sCT   sCT   sC3     9    0.81630   0.610     1
N3 CT CT C3 9 180.0 3.53925 2  sN3   sCT   sCT   sC3     9    3.53925   2.643     2
N3 CT CT C6 9 180.0 11.02568 1  sN3   sCT   sCT   sC6     9    11.02568  8.234     1
N3 CT CT C6 9 180.0 4.98022 2  sN3   sCT   sCT   sC6     9    4.98022   3.719     2
N3 CT CT C6 9 180.0 0.02845 3  sN3   sCT   sCT   sC6     9    0.02845   0.021     3
N3 CT CT C6 9 0.0 1.76858 4  sN3   sCT   sCT   sC6     9    1.76858   1.321     4
N3 CT CT C6 9 0.0 0.96943 5  sN3   sCT   sCT   sC6     9    0.96943   0.724     5
N3 CT CT C6 9 180.0 0.89009 6  sN3   sCT   sCT   sC6     9    0.89009   0.665     6
N C1 C N 9 180.0 2.69445 1   sN   sC1    sC    sN     9    2.69445   2.012     1
N C1 C N 9 180.0 6.68666 2   sN   sC1    sC    sN     9    6.68666   4.994     2
N C1 C N 9 180.0 1.67111 3   sN   sC1    sC    sN     9    1.67111   1.248     3
N C1 C N 9 0.0 0.31419 4   sN   sC1    sC    sN     9    0.31419   0.235     4
N C5 CT CT 9 180.0 4.37772 1   sN   sC5   sCT   sCT     9    4.37772   3.269     1
N C5 CT CT 9 180.0 0.75730 2   sN   sC5   sCT   sCT     9    0.75730   0.566     2
N C5 CT CT 9 180.0 0.14811 3   sN   sC5   sCT   sCT     9    0.14811   0.111     3
N C5 CT CT 9 0.0 0.41966 4   sN   sC5   sCT   sCT     9    0.41966   0.313     4
N C5 CT CT 9 0.0 0.54308 5   sN   sC5   sCT   sCT     9    0.54308   0.406     5
N C5 CT CT 9 180.0 0.44373 6   sN   sC5   sCT   sCT     9    0.44373   0.331     6
N C7 C N 9 180.0 1.88280 1   sN   sC7    sC    sN     9    1.88280   1.406     1
N C7 C N 9 180.0 6.61072 2   sN   sC7    sC    sN     9    6.61072   4.937     2
N C7 C N 9 180.0 2.30120 3   sN   sC7    sC    sN     9    2.30120   1.719     3
N CT C8 CT 9 0.0 0.25104 1   sN   sCT   sC8   sCT     9    0.25104   0.187     1
N CT C8 CT 9 180.0 2.09200 2   sN   sCT   sC8   sCT     9    2.09200   1.562     2
N CT C8 CT 9 0.0 0.62760 3   sN   sCT   sC8   sCT     9    0.62760   0.469     3
N CT C8 CT 9 180.0 0.27196 4   sN   sCT   sC8   sCT     9    0.27196   0.203     4
N CT C8 O3 9 180.0 0.33472 1   sN   sCT   sC8   sO3     9    0.33472   0.250     1
N CT C8 OH 9 180.0 1.04600 1   sN   sCT   sC8   sOH     9    1.04600   0.781     1
N CT C N 9 360.0 0.82425 1   sN   sCT    sC    sN     9    0.82425   0.616     1
N CT C N 9 180.0 6.04588 2   sN   sCT    sC    sN     9    6.04588   4.515     2
N CT C N 9 180.0 2.00414 3   sN   sCT    sC    sN     9    2.00414   1.497     3
N CT C N 9 360.0 0.07991 4   sN   sCT    sC    sN     9    0.07991   0.060     4
N CT C N 9 360.0 0.01674 5   sN   sCT    sC    sN     9    0.01674   0.013     5
N CT CT C3 9 0.0 0.81630 1   sN   sCT   sCT   sC3     9    0.81630   0.610     1
N CT CT C3 9 180.0 3.53925 2   sN   sCT   sCT   sC3     9    3.53925   2.643     2
N CT CT C5 9 180.0 2.63592 1   sN   sCT   sCT   sC5     9    2.63592   1.969     1
N CT CT C6 9 180.0 12.05410 1   sN   sCT   sCT   sC6     9    12.05410  9.003     1
N CT CT C6 9 180.0 5.06682 2   sN   sCT   sCT   sC6     9    5.06682   3.784     2
N CT CT C6 9 0.0 0.25941 3   sN   sCT   sCT   sC6     9    0.25941   0.194     3
N CT CT C6 9 0.0 1.02508 4   sN   sCT   sCT   sC6     9    1.02508   0.766     4
N CT CT C6 9 0.0 0.54810 5   sN   sCT   sCT   sC6     9    0.54810   0.409     5
N CT CT C6 9 180.0 0.59413 6   sN   sCT   sCT   sC6     9    0.59413   0.444     6
N CT CT C9 9 0.0 0.41840 1   sN   sCT   sCT   sC9     9    0.41840   0.312     1
N CT CT CC 9 180.0 1.67360 1   sN   sCT   sCT   sCC     9    1.67360   1.250     1
N CT CT SH 9 180.0 2.30120 1   sN   sCT   sCT   sSH     9    2.30120   1.719     1
N CT CT SH 9 180.0 2.63592 2   sN   sCT   sCT   sSH     9    2.63592   1.969     2
N CT CT SH 9 180.0 0.25104 3   sN   sCT   sCT   sSH     9    0.25104   0.187     3
N CT CT SH 9 180.0 0.12552 4   sN   sCT   sCT   sSH     9    0.12552   0.094     4
O C OS CT 9 180.0 5.85760 1   sO    sC   sOS   sCT     9    5.85760   4.375     1
O C OS CT 9 180.0 11.29680 2   sO    sC   sOS   sCT     9    11.29680  8.437     2
OH CT CT OH 9 0.0 0.60250 3  sOH   sCT   sCT   sOH     9    0.60250   0.450     3
OH CT CT OH 9 0.0 4.91620 2  sOH   sCT   sCT   sOH     9    4.91620   3.672     2
OH P OS CT 9 0.0 1.04600 3  sOH    sP   sOS   sCT     9    1.04600   0.781     3
OH P OS CT 9 0.0 5.02080 2  sOH    sP   sOS   sCT     9    5.02080   3.750     2
OS CT CT OH 9 0.0 0.60250 3  sOS   sCT   sCT   sOH     9    0.60250   0.450     3
OS CT CT OH 9 0.0 4.91620 2  sOS   sCT   sCT   sOH     9    4.91620   3.672     2
OS CT CT OS 9 0.0 4.91620 2  sOS   sCT   sCT   sOS     9    4.91620   3.672     2
OS CT CT OS 9 0.0 0.60250 3  sOS   sCT   sCT   sOS     9    0.60250   0.450     3
OS CT N* CK 9 0.0 10.46000 1  sOS   sCT   sN*   sCK     9    10.46000  7.812     1
OS CT N* CM 9 0.0 10.46000 1  sOS   sCT   sN*   sCM     9    10.46000  7.812     1
OS P OS CT 9 0.0 5.02080 2  sOS    sP   sOS   sCT     9    5.02080   3.750     2
OS P OS CT 9 0.0 1.04600 3  sOS    sP   sOS   sCT     9    1.04600   0.781     3
N CT CT CA 9 0.0 0.00000 0   sN   sCT   sCT   sCA     9    0.00000   0.000     0
N CT CT C* 9 0.0 0.00000 0   sN   sCT   sCT   sC*     9    0.00000   0.000     0
CT CT C9 S 9 0.0 0.00000 0  sCT   sCT   sC9    sS     9    0.00000   0.000     0
CT CT C9 CT 9 0.0 0.00000 0  sCT   sCT   sC9   sCT     9    0.00000   0.000     0
X C1 N3 X 9 0.0 0.65084 3    X   sC1   sN3     X     9    0.65084   0.486     3
X C5 N X 9 180.0 10.46000 2    X   sC5    sN     X     9    10.46000  7.812     2
X C7 CT X 9 0.0 0.65084 3    X   sC7   sCT     X     9    0.65084   0.486     3
X C7 N3 X 9 0.0 0.65084 3    X   sC7   sN3     X     9    0.65084   0.486     3
X C8 O3 X 9 0.0 0.69873 3    X   sC8   sO3     X     9    0.69873   0.522     3
X C8 OH X 9 0.0 0.69873 3    X   sC8   sOH     X     9    0.69873   0.522     3
X C9 S X 9 0.0 1.39327 3    X   sC9    sS     X     9    1.39327   1.041     3
X CA CA X 9 180.0 15.16700 2    X   sCA   sCA     X     9    15.16700  11.327    2
X CA CB X 9 180.0 14.64400 2    X   sCA   sCB     X     9    14.64400  10.937    2
X CA CM X 9 180.0 10.66920 2    X   sCA   sCM     X     9    10.66920  7.968     2
X CA CN X 9 180.0 15.16700 2    X   sCA   sCN     X     9    15.16700  11.327    2
X CA N2 X 9 180.0 10.04160 2    X   sCA   sN2     X     9    10.04160  7.499     2
X CA NA X 9 180.0 6.27600 2    X   sCA   sNA     X     9    6.27600   4.687     2
X CA NC X 9 180.0 20.08320 2    X   sCA   sNC     X     9    20.08320  14.999    2
X CA OH X 9 180.0 3.76560 2    X   sCA   sOH     X     9    3.76560   2.812     2
X CB CB X 9 180.0 22.80280 2    X   sCB   sCB     X     9    22.80280  17.030    2
X CB CN X 9 180.0 12.55200 2    X   sCB   sCN     X     9    12.55200  9.374     2
X CB NB X 9 180.0 10.66920 2    X   sCB   sNB     X     9    10.66920  7.968     2
X CB NC X 9 180.0 17.36360 2    X   sCB   sNC     X     9    17.36360  12.968    2
X CB N* X 9 180.0 6.90360 2    X   sCB   sN*     X     9    6.90360   5.156     2
X C CA X 9 180.0 15.16700 2    X    sC   sCA     X     9    15.16700  11.327    2
X C CB X 9 180.0 12.55200 2    X    sC   sCB     X     9    12.55200  9.374     2
X C* CB X 9 180.0 7.00820 2    X   sC*   sCB     X     9    7.00820   5.234     2
X CC CV X 9 180.0 21.54760 2    X   sCC   sCV     X     9    21.54760  16.093    2
X CC CW X 9 180.0 22.48900 2    X   sCC   sCW     X     9    22.48900  16.796    2
X C CM X 9 180.0 9.10020 2    X    sC   sCM     X     9    9.10020   6.796     2
X CC NA X 9 180.0 5.85760 2    X   sCC   sNA     X     9    5.85760   4.375     2
X CC NB X 9 180.0 10.04160 2    X   sCC   sNB     X     9    10.04160  7.499     2
X C* CW X 9 180.0 27.30060 2    X   sC*   sCW     X     9    27.30060  20.389    2
X C C X 9 180.0 15.16700 2    X    sC    sC     X     9    15.16700  11.327    2
X CK NB X 9 180.0 41.84000 2    X   sCK   sNB     X     9    41.84000  31.248    2
X CK N* X 9 180.0 7.11280 2    X   sCK   sN*     X     9    7.11280   5.312     2
X CM CM X 9 180.0 27.82360 2    X   sCM   sCM     X     9    27.82360  20.780    2
X CM N* X 9 180.0 7.74040 2    X   sCM   sN*     X     9    7.74040   5.781     2
X CM OS X 9 180.0 4.39320 2    X   sCM   sOS     X     9    4.39320   3.281     2
X C NA X 9 180.0 5.64840 2    X    sC   sNA     X     9    5.64840   4.218     2
X C NC X 9 180.0 16.73600 2    X    sC   sNC     X     9    16.73600  12.499    2
X CN NA X 9 180.0 6.38060 2    X   sCN   sNA     X     9    6.38060   4.765     2
X C N X 9 180.0 10.46000 2    X    sC    sN     X     9    10.46000  7.812     2
X C N* X 9 180.0 6.06680 2    X    sC   sN*     X     9    6.06680   4.531     2
X C OH X 9 180.0 9.62320 2    X    sC   sOH     X     9    9.62320   7.187     2
X C OS X 9 180.0 11.29680 2    X    sC   sOS     X     9    11.29680  8.437     2
X C O X 9 180.0 11.71520 2    X    sC    sO     X     9    11.71520  8.749     2
X C OB X 9 180.0 11.71520 2    X    sC   sOB     X     9    11.71520  8.749     2
X CQ NC X 9 180.0 28.45120 2    X   sCQ   sNC     X     9    28.45120  21.249    2
X CR NA X 9 180.0 9.72780 2    X   sCR   sNA     X     9    9.72780   7.265     2
X CR NB X 9 180.0 20.92000 2    X   sCR   sNB     X     9    20.92000  15.624    2
X CT C8 X 9 0.0 0.64852 3    X   sCT   sC8     X     9    0.64852   0.484     3
X CT C9 X 9 0.0 0.64852 3    X   sCT   sC9     X     9    0.64852   0.484     3
X CT CT X 9 0.0 0.65084 3    X   sCT   sCT     X     9    0.65084   0.486     3
X CT N3 X 9 0.0 0.65084 3    X   sCT   sN3     X     9    0.65084   0.486     3
X CT OH X 9 0.0 0.69733 3    X   sCT   sOH     X     9    0.69733   0.521     3
X CT OS X 9 0.0 1.60387 3    X   sCT   sOS     X     9    1.60387   1.198     3
X CT SH X 9 0.0 1.04600 3    X   sCT   sSH     X     9    1.04600   0.781     3
X CT S X 9 0.0 1.39467 3    X   sCT    sS     X     9    1.39467   1.042     3
X CV NB X 9 180.0 10.04160 2    X   sCV   sNB     X     9    10.04160  7.499     2
X CW NA X 9 180.0 6.27600 2    X   sCW   sNA     X     9    6.27600   4.687     2
X OH P X 9 0.0 1.04600 3    X   sOH    sP     X     9    1.04600   0.781     3
X OS P X 9 0.0 1.04600 3    X   sOS    sP     X     9    1.04600   0.781     3
X C1 N X 9 0.0 0.00000 0    X   sC1    sN     X     9    0.00000   0.000     0
X C C1 X 9 0.0 0.00000 0    X    sC   sC1     X     9    0.00000   0.000     0
X C C9 X 9 0.0 0.00000 0    X    sC   sC9     X     9    0.00000   0.000     0
X C CT X 9 0.0 0.00000 0    X    sC   sCT     X     9    0.00000   0.000     0
X CA CT X 9 0.0 0.00000 0    X   sCA   sCT     X     9    0.00000   0.000     0
X CC CT X 9 0.0 0.00000 0    X   sCC   sCT     X     9    0.00000   0.000     0
X CM CT X 9 0.0 0.00000 0    X   sCM   sCT     X     9    0.00000   0.000     0
X CT N X 9 0.0 0.00000 0    X   sCT    sN     X     9    0.00000   0.000     0
X CT N* X 9 0.0 0.00000 0    X   sCT   sN*     X     9    0.00000   0.000     0
X CT N2 X 9 0.0 0.00000 0    X   sCT   sN2     X     9    0.00000   0.000     0
X C* CT X 9 0.0 0.00000 0    X   sC*   sCT     X     9    0.00000   0.000     0
X C7 N X 9 0.0 0.00000 0    X   sC7    sN     X     9    0.00000   0.000     0
X C C7 X 9 0.0 0.00000 0    X    sC   sC7     X     9    0.00000   0.000     0
X C5 CT X 9 0.0 0.00000 0    X   sC5   sCT     X     9    0.00000   0.000     0
X C6 CT X 9 0.0 0.00000 0    X   sC6   sCT     X     9    0.00000   0.000     0
C C1 N O 4 180.0 4.60240 2   sC   sC1    sN    sO     4    4.60240   3.195     2
C C1 N OB 4 180.0 4.60240 2   sC   sC1    sN   sOB     4    4.60240   3.195     2
C C1 N H 4 180.0 4.60240 2   sC   sC1    sN    sH     4    4.60240   3.195     2
C C1 N HB 4 180.0 4.60240 2   sC   sC1    sN   sHB     4    4.60240   3.195     2
C9 O C OH 4 180.0 43.93200 2  sC9    sO    sC   sOH     4    43.93200  30.501    2
CB CK N* CT 4 180.0 4.18400 2  sCB   sCK   sN*   sCT     4    4.18400   2.905     2
C CM N* CT 4 180.0 4.18400 2   sC   sCM   sN*   sCT     4    4.18400   2.905     2
CT O C OH 4 180.0 43.93200 2  sCT    sO    sC   sOH     4    43.93200  30.501    2
CT CV CC NA 4 180.0 4.60240 2  sCT   sCV   sCC   sNA     4    4.60240   3.195     2
CT CW CC NB 4 180.0 4.60240 2  sCT   sCW   sCC   sNB     4    4.60240   3.195     2
CT CC CW NB 4 180.0 4.60240 2  sCT   sCC   sCW   sNB     4    4.60240   3.195     2
CT CW CC NA 4 180.0 4.60240 2  sCT   sCW   sCC   sNA     4    4.60240   3.195     2
CB CT C* CW 4 180.0 4.60240 2  sCB   sCT   sC*   sCW     4    4.60240   3.195     2
CA CA CA CT 4 180.0 4.60240 2  sCA   sCA   sCA   sCT     4    4.60240   3.195     2
C CM CM CT 4 180.0 4.60240 2   sC   sCM   sCM   sCT     4    4.60240   3.195     2
CM N2 CA NC 4 180.0 4.60240 2  sCM   sN2   sCA   sNC     4    4.60240   3.195     2
CB N2 CA NC 4 180.0 4.60240 2  sCB   sN2   sCA   sNC     4    4.60240   3.195     2
N2 NA CA NC 4 180.0 4.60240 2  sN2   sNA   sCA   sNC     4    4.60240   3.195     2
CA CA C OH 4 180.0 4.60240 2  sCA   sCA    sC   sOH     4    4.60240   3.195     2
CA CA CA OH 4 180.0 4.60240 2  sCA   sCA   sCA   sOH     4    4.60240   3.195     2
H5 O C OH 4 180.0 4.60240 2  sH5    sO    sC   sOH     4    4.60240   3.195     2
H5 O C OS 4 180.0 4.60240 2  sH5    sO    sC   sOS     4    4.60240   3.195     2
CM CT CM HA 4 180.0 4.60240 2  sCM   sCT   sCM   sHA     4    4.60240   3.195     2
Br CA CA CA 4 180.0 4.60240 2  sBr   sCA   sCA   sCA     4    4.60240   3.195     2
CM H4 C O 4 180.0 4.60240 2  sCM   sH4    sC    sO     4    4.60240   3.195     2
C CT N H 4 180.0 4.60240 2   sC   sCT    sN    sH     4    4.60240   3.195     2
C CT N HB 4 180.0 4.60240 2   sC   sCT    sN   sHB     4    4.60240   3.195     2
C CT N O 4 180.0 4.60240 2   sC   sCT    sN    sO     4    4.60240   3.195     2
C C7 N O 4 180.0 4.60240 2   sC   sC7    sN    sO     4    4.60240   3.195     2
C CT N OB 4 180.0 4.60240 2   sC   sCT    sN   sOB     4    4.60240   3.195     2
C C7 N OB 4 180.0 4.60240 2   sC   sC7    sN   sOB     4    4.60240   3.195     2
C C7 N H 4 180.0 4.60240 2   sC   sC7    sN    sH     4    4.60240   3.195     2
C C7 N HB 4 180.0 4.60240 2   sC   sC7    sN   sHB     4    4.60240   3.195     2
C5 CT N O 4 180.0 4.60240 2  sC5   sCT    sN    sO     4    4.60240   3.195     2
C5 CT N OB 4 180.0 4.60240 2  sC5   sCT    sN   sOB     4    4.60240   3.195     2
C5 CT N H 4 180.0 4.60240 2  sC5   sCT    sN    sH     4    4.60240   3.195     2
C5 CT N HB 4 180.0 4.60240 2  sC5   sCT    sN   sHB     4    4.60240   3.195     2
X CT N C1 4 180.0 4.18400 2    X   sCT    sN   sC1     4    4.18400   2.905     2
X CT N C7 4 180.0 4.18400 2    X   sCT    sN   sC7     4    4.18400   2.905     2
X O2 C6 O2 4 180.0 43.93200 2    X   sO2   sC6   sO2     4    43.93200  30.501    2
X O2 C O2 4 180.0 43.93200 2    X   sO2    sC   sO2     4    43.93200  30.501    2
X N2 CA N2 4 180.0 43.93200 2    X   sN2   sCA   sN2     4    43.93200  30.501    2
X CT N CT 4 180.0 4.18400 2    X   sCT    sN   sCT     4    4.18400   2.905     2
X X C O 4 180.0 43.93200 2    X     X    sC    sO     4    43.93200  30.501    2
X X C OB 4 180.0 43.93200 2    X     X    sC   sOB     4    43.93200  30.501    2
X X N H 4 180.0 4.18400 2    X     X    sN    sH     4    4.18400   2.905     2
X X N2 H 4 180.0 4.18400 2    X     X   sN2    sH     4    4.18400   2.905     2
X X NA H 4 180.0 4.18400 2    X     X   sNA    sH     4    4.18400   2.905     2
X X CA HA 4 180.0 4.60240 2    X     X   sCA   sHA     4    4.60240   3.195     2
X X CW H4 4 180.0 4.60240 2    X     X   sCW   sH4     4    4.60240   3.195     2
X X CR H5 4 180.0 4.60240 2    X     X   sCR   sH5     4    4.60240   3.195     2
X X CV H4 4 180.0 4.60240 2    X     X   sCV   sH4     4    4.60240   3.195     2
X X CQ H5 4 180.0 4.60240 2    X     X   sCQ   sH5     4    4.60240   3.195     2
X X CK H5 4 180.0 4.60240 2    X     X   sCK   sH5     4    4.60240   3.195     2
X X CM H4 4 180.0 4.60240 2    X     X   sCM   sH4     4    4.60240   3.195     2
X X CM HA 4 180.0 4.60240 2    X     X   sCM   sHA     4    4.60240   3.195     2
X X CA H4 4 180.0 4.60240 2    X     X   sCA   sH4     4    4.60240   3.195     2
X X CA H5 4 180.0 4.60240 2    X     X   sCA   sH5     4    4.60240   3.195     2
X X C5 O 4 180.0 43.93200 2    X     X   sC5    sO     4    43.93200  30.501    2
C8 CT C N 9 0.0 0.83680 1  sC8   sCT    sC    sN     9    0.83680   0.581     1
C8 CT C N 9 0.0 0.83680 2  sC8   sCT    sC    sN     9    0.83680   0.581     2
C8 CT C N 9 0.0 1.67360 3  sC8   sCT    sC    sN     9    1.67360   1.162     3
C8 CT N C 9 0.0 8.36800 1  sC8   sCT    sN    sC     9    8.36800   5.810     1
C8 CT N C 9 0.0 8.36800 2  sC8   sCT    sN    sC     9    8.36800   5.810     2
C8 CT N C 9 0.0 1.67360 3  sC8   sCT    sN    sC     9    1.67360   1.162     3
C CT C8 O3 9 180.0 4.18400 1   sC   sCT   sC8   sO3     9    4.18400   2.905     1
C CT C8 OH 9 180.0 3.76560 1   sC   sCT   sC8   sOH     9    3.76560   2.614     1
C CT CT C4 9 0.0 2.39074 1   sC   sCT   sCT   sC4     9    2.39074   1.660     1
C CT CT C4 9 180.0 1.49913 2   sC   sCT   sCT   sC4     9    1.49913   1.041     2
C CT CT C4 9 0.0 0.56400 3   sC   sCT   sCT   sC4     9    0.56400   0.392     3
C CT CT C5 9 0.0 0.71421 1   sC   sCT   sCT   sC5     9    0.71421   0.496     1
C CT CT C5 9 180.0 2.49241 2   sC   sCT   sCT   sC5     9    2.49241   1.730     2
C CT CT C5 9 0.0 0.49580 3   sC   sCT   sCT   sC5     9    0.49580   0.344     3
C CT CT C5 9 180.0 1.74556 4   sC   sCT   sCT   sC5     9    1.74556   1.212     4
C CT CT C5 9 0.0 0.43597 5   sC   sCT   sCT   sC5     9    0.43597   0.303     5
C CT CT C5 9 180.0 0.42142 6   sC   sCT   sCT   sC5     9    0.42142   0.293     6
C CT CT C* 9 0.0 1.21336 1   sC   sCT   sCT   sC*     9    1.21336   0.842     1
C CT CT C9 9 0.0 1.25520 1   sC   sCT   sCT   sC9     9    1.25520   0.871     1
C CT CT CA 9 0.0 2.17568 1   sC   sCT   sCT   sCA     9    2.17568   1.511     1
C CT CT CC 9 0.0 2.92880 1   sC   sCT   sCT   sCC     9    2.92880   2.033     1
C CT CT SH 9 180.0 0.66944 1   sC   sCT   sCT   sSH     9    0.66944   0.465     1
Cl CT CT Cl 9 180.0 1.88280 1  sCl   sCT   sCT   sCl     9    1.88280   1.307     1
CM CM C O 9 180.0 9.10020 2  sCM   sCM    sC    sO     9    9.10020   6.318     2
CM CM C O 9 0.0 1.25520 3  sCM   sCM    sC    sO     9    1.25520   0.871     3
C N C1 C 9 0.0 0.35267 1   sC    sN   sC1    sC     9    0.35267   0.245     1
C N C1 C 9 0.0 1.59541 2   sC    sN   sC1    sC     9    1.59541   1.108     2
C N C1 C 9 180.0 0.08381 3   sC    sN   sC1    sC     9    0.08381   0.058     3
C N C1 C 9 0.0 0.32396 4   sC    sN   sC1    sC     9    0.32396   0.225     4
C N C7 C 9 0.0 1.12968 2   sC    sN   sC7    sC     9    1.12968   0.784     2
C N C7 C 9 0.0 1.75728 3   sC    sN   sC7    sC     9    1.75728   1.220     3
C N CT C 9 180.0 0.14226 1   sC    sN   sCT    sC     9    0.14226   0.099     1
C N CT C 9 0.0 1.40164 2   sC    sN   sCT    sC     9    1.40164   0.973     2
C N CT C 9 0.0 2.27610 3   sC    sN   sCT    sC     9    2.27610   1.580     3
C N CT C 9 0.0 0.33472 4   sC    sN   sCT    sC     9    0.33472   0.232     4
CT C7 C N 9 0.0 0.83680 1  sCT   sC7    sC    sN     9    0.83680   0.581     1
CT C7 C N 9 0.0 0.83680 2  sCT   sC7    sC    sN     9    0.83680   0.581     2
CT C7 C N 9 0.0 1.67360 3  sCT   sC7    sC    sN     9    1.67360   1.162     3
CT C7 N C 9 0.0 8.36800 1  sCT   sC7    sN    sC     9    8.36800   5.810     1
CT C7 N C 9 0.0 8.36800 2  sCT   sC7    sN    sC     9    8.36800   5.810     2
CT C7 N C 9 0.0 1.67360 3  sCT   sC7    sN    sC     9    1.67360   1.162     3
CT C9 C O2 9 180.0 2.51040 2  sCT   sC9    sC   sO2     9    2.51040   1.743     2
CT C9 C O 9 180.0 2.51040 2  sCT   sC9    sC    sO     9    2.51040   1.743     2
CT C9 C OB 9 180.0 2.51040 2  sCT   sC9    sC   sOB     9    2.51040   1.743     2
CT CM CM CT 9 180.0 27.82360 2  sCT   sCM   sCM   sCT     9    27.82360  19.317    2
CT CM CM CT 9 180.0 7.94960 1  sCT   sCM   sCM   sCT     9    7.94960   5.519     1
CT CT C4 CT 9 0.0 0.62760 3  sCT   sCT   sC4   sCT     9    0.62760   0.436     3
CT CT C5 O 9 180.0 4.18400 1  sCT   sCT   sC5    sO     9    4.18400   2.905     1
CT CT C6 O2 9 180.0 0.77822 4  sCT   sCT   sC6   sO2     9    0.77822   0.540     4
CT CT C6 O2 9 180.0 1.48114 6  sCT   sCT   sC6   sO2     9    1.48114   1.028     6
CT CT C6 O2 9 180.0 3.65263 2  sCT   sCT   sC6   sO2     9    3.65263   2.536     2
CT CT C* CW 9 0.0 5.02080 1  sCT   sCT   sC*   sCW     9    5.02080   3.486     1
CT CT C N 9 0.0 0.83680 1  sCT   sCT    sC    sN     9    0.83680   0.581     1
CT CT C N 9 0.0 0.83680 2  sCT   sCT    sC    sN     9    0.83680   0.581     2
CT CT C N 9 0.0 1.67360 3  sCT   sCT    sC    sN     9    1.67360   1.162     3
CT CT CT C3 9 0.0 0.62760 3  sCT   sCT   sCT   sC3     9    0.62760   0.436     3
CT CT CT C7 9 0.0 0.75312 3  sCT   sCT   sCT   sC7     9    0.75312   0.523     3
CT CT CT C7 9 180.0 0.83680 1  sCT   sCT   sCT   sC7     9    0.83680   0.581     1
CT CT CT C7 9 180.0 1.04600 2  sCT   sCT   sCT   sC7     9    1.04600   0.726     2
CT CT CT CT 9 0.0 0.62760 3  sCT   sCT   sCT   sCT     9    0.62760   0.436     3
CT CT N C 9 0.0 1.67360 3  sCT   sCT    sN    sC     9    1.67360   1.162     3
CT CT N C 9 0.0 8.36800 1  sCT   sCT    sN    sC     9    8.36800   5.810     1
CT CT N C 9 0.0 8.36800 2  sCT   sCT    sN    sC     9    8.36800   5.810     2
CT CT OS C 9 0.0 1.60247 3  sCT   sCT   sOS    sC     9    1.60247   1.113     3
CT CT OS C 9 180.0 3.34720 1  sCT   sCT   sOS    sC     9    3.34720   2.324     1
CT CT OS CT 9 0.0 1.60247 3  sCT   sCT   sOS   sCT     9    1.60247   1.113     3
CT CT OS CT 9 180.0 0.41840 2  sCT   sCT   sOS   sCT     9    0.41840   0.290     2
CT CT SH HS 9 0.0 0.83680 3  sCT   sCT   sSH   sHS     9    0.83680   0.581     3
CT CT SH HS 9 0.0 2.09200 2  sCT   sCT   sSH   sHS     9    2.09200   1.452     2
CT OS CT N* 9 0.0 1.60247 3  sCT   sOS   sCT   sN*     9    1.60247   1.113     3
CT OS CT N* 9 0.0 2.71960 2  sCT   sOS   sCT   sN*     9    2.71960   1.888     2
CT OS CT OS 9 0.0 0.41840 3  sCT   sOS   sCT   sOS     9    0.41840   0.290     3
CT OS CT OS 9 180.0 3.55640 2  sCT   sOS   sCT   sOS     9    3.55640   2.469     2
CT OS CT OS 9 180.0 5.64840 1  sCT   sOS   sCT   sOS     9    5.64840   3.922     1
CT S S CT 9 0.0 14.64400 2  sCT    sS    sS   sCT     9    14.64400  10.167    2
CT S S CT 9 0.0 2.51040 3  sCT    sS    sS   sCT     9    2.51040   1.743     3
F CT CT F 9 180.0 5.02080 1   sF   sCT   sCT    sF     9    5.02080   3.486     1
H1 C1 C O 9 0.0 3.34720 1  sH1   sC1    sC    sO     9    3.34720   2.324     1
H1 C1 C O 9 180.0 0.33472 3  sH1   sC1    sC    sO     9    0.33472   0.232     3
H1 C7 C O 9 0.0 3.34720 1  sH1   sC7    sC    sO     9    3.34720   2.324     1
H1 C7 C O 9 180.0 0.33472 3  sH1   sC7    sC    sO     9    0.33472   0.232     3
H1 CT C O 9 0.0 3.34720 1  sH1   sCT    sC    sO     9    3.34720   2.324     1
H1 CT C O 9 180.0 0.33472 3  sH1   sCT    sC    sO     9    0.33472   0.232     3
H1 C1 C OB 9 0.0 3.34720 1  sH1   sC1    sC   sOB     9    3.34720   2.324     1
H1 C1 C OB 9 180.0 0.33472 3  sH1   sC1    sC   sOB     9    0.33472   0.232     3
H1 C7 C OB 9 0.0 3.34720 1  sH1   sC7    sC   sOB     9    3.34720   2.324     1
H1 C7 C OB 9 180.0 0.33472 3  sH1   sC7    sC   sOB     9    0.33472   0.232     3
H1 CT C OB 9 0.0 3.34720 1  sH1   sCT    sC   sOB     9    3.34720   2.324     1
H1 CT C OB 9 180.0 0.33472 3  sH1   sCT    sC   sOB     9    0.33472   0.232     3
H1 CT CT Br 9 0.0 2.30120 1  sH1   sCT   sCT   sBr     9    2.30120   1.598     1
H1 CT CT Cl 9 0.0 1.04600 1  sH1   sCT   sCT   sCl     9    1.04600   0.726     1
H1 CT CT F 9 0.0 0.79496 1  sH1   sCT   sCT    sF     9    0.79496   0.552     1
H1 CT CT OH 9 0.0 1.04600 1  sH1   sCT   sCT   sOH     9    1.04600   0.726     1
H1 CT CT OS 9 0.0 1.04600 1  sH1   sCT   sCT   sOS     9    1.04600   0.726     1
HC C3 CT CT 9 0.0 0.66944 3  sHC   sC3   sCT   sCT     9    0.66944   0.465     3
HC C4 CT CT 9 0.0 0.66944 3  sHC   sC4   sCT   sCT     9    0.66944   0.465     3
HC C4 CT HC 9 0.0 0.62760 3  sHC   sC4   sCT   sHC     9    0.62760   0.436     3
HC CT C3 HC 9 0.0 0.62760 3  sHC   sCT   sC3   sHC     9    0.62760   0.436     3
HC CT C4 CT 9 0.0 0.66944 3  sHC   sCT   sC4   sCT     9    0.66944   0.465     3
HC CT C5 O 9 0.0 3.34720 1  sHC   sCT   sC5    sO     9    3.34720   2.324     1
HC CT C5 O 9 180.0 0.33472 3  sHC   sCT   sC5    sO     9    0.33472   0.232     3
HC CT CM CM 9 0.0 4.81160 1  sHC   sCT   sCM   sCM     9    4.81160   3.341     1
HC CT CM CM 9 180.0 1.58992 3  sHC   sCT   sCM   sCM     9    1.58992   1.104     3
HC CT C O 9 0.0 3.34720 1  sHC   sCT    sC    sO     9    3.34720   2.324     1
HC CT C O 9 180.0 0.33472 3  sHC   sCT    sC    sO     9    0.33472   0.232     3
HC CT C OB 9 0.0 3.34720 1  sHC   sCT    sC   sOB     9    3.34720   2.324     1
HC CT C OB 9 180.0 0.33472 3  sHC   sCT    sC   sOB     9    0.33472   0.232     3
HC CT CT Br 9 0.0 2.30120 1  sHC   sCT   sCT   sBr     9    2.30120   1.598     1
HC CT CT C3 9 0.0 0.66944 3  sHC   sCT   sCT   sC3     9    0.66944   0.465     3
HC CT CT C4 9 0.0 0.66944 3  sHC   sCT   sCT   sC4     9    0.66944   0.465     3
HC CT CT C7 9 0.0 0.66944 3  sHC   sCT   sCT   sC7     9    0.66944   0.465     3
HC CT CT Cl 9 0.0 1.04600 1  sHC   sCT   sCT   sCl     9    1.04600   0.726     1
HC CT CT CT 9 0.0 0.66944 3  sHC   sCT   sCT   sCT     9    0.66944   0.465     3
HC CT CT F 9 0.0 0.79496 1  sHC   sCT   sCT    sF     9    0.79496   0.552     1
HC CT CT HC 9 0.0 0.62760 3  sHC   sCT   sCT   sHC     9    0.62760   0.436     3
HC CT CT OH 9 0.0 1.04600 1  sHC   sCT   sCT   sOH     9    1.04600   0.726     1
HC CT CT OS 9 0.0 1.04600 1  sHC   sCT   sCT   sOS     9    1.04600   0.726     1
H N C5 O 9 0.0 8.36800 1   sH    sN   sC5    sO     9    8.36800   5.810     1
H N C5 O 9 180.0 10.46000 2   sH    sN   sC5    sO     9    10.46000  7.262     2
H N C O 9 0.0 8.36800 1   sH    sN    sC    sO     9    8.36800   5.810     1
H N C O 9 180.0 10.46000 2   sH    sN    sC    sO     9    10.46000  7.262     2
HB N C OB 9 0.0 8.36800 1  sHB    sN    sC   sOB     9    8.36800   5.810     1
HB N C OB 9 180.0 10.46000 2  sHB    sN    sC   sOB     9    10.46000  7.262     2
HO O3 C8 CT 9 0.0 0.35982 1  sHO   sO3   sC8   sCT     9    0.35982   0.250     1
HO O3 C8 CT 9 0.0 0.41840 3  sHO   sO3   sC8   sCT     9    0.41840   0.290     3
HO O3 C8 CT 9 180.0 0.68199 2  sHO   sO3   sC8   sCT     9    0.68199   0.473     2
HO O3 C8 H1 9 0.0 0.41840 3  sHO   sO3   sC8   sH1     9    0.41840   0.290     3
HO OH C8 CT 9 0.0 0.25104 2  sHO   sOH   sC8   sCT     9    0.25104   0.174     2
HO OH C8 CT 9 0.0 0.83680 3  sHO   sOH   sC8   sCT     9    0.83680   0.581     3
HO OH C8 CT 9 0.0 3.13800 1  sHO   sOH   sC8   sCT     9    3.13800   2.179     1
HO OH C O 9 0.0 7.94960 1  sHO   sOH    sC    sO     9    7.94960   5.519     1
HO OH C O 9 180.0 9.62320 2  sHO   sOH    sC    sO     9    9.62320   6.681     2
HO OH CT CT 9 0.0 0.66944 3  sHO   sOH   sCT   sCT     9    0.66944   0.465     3
HO OH CT CT 9 0.0 1.04600 1  sHO   sOH   sCT   sCT     9    1.04600   0.726     1
N3 CT CT C3 9 0.0 0.81630 1  sN3   sCT   sCT   sC3     9    0.81630   0.567     1
N3 CT CT C3 9 180.0 3.53925 2  sN3   sCT   sCT   sC3     9    3.53925   2.457     2
N3 CT CT C6 9 180.0 11.02568 1  sN3   sCT   sCT   sC6     9    11.02568  7.655     1
N3 CT CT C6 9 180.0 4.98022 2  sN3   sCT   sCT   sC6     9    4.98022   3.458     2
N3 CT CT C6 9 180.0 0.02845 3  sN3   sCT   sCT   sC6     9    0.02845   0.020     3
N3 CT CT C6 9 0.0 1.76858 4  sN3   sCT   sCT   sC6     9    1.76858   1.228     4
N3 CT CT C6 9 0.0 0.96943 5  sN3   sCT   sCT   sC6     9    0.96943   0.673     5
N3 CT CT C6 9 180.0 0.89009 6  sN3   sCT   sCT   sC6     9    0.89009   0.618     6
N C1 C N 9 180.0 2.69445 1   sN   sC1    sC    sN     9    2.69445   1.871     1
N C1 C N 9 180.0 6.68666 2   sN   sC1    sC    sN     9    6.68666   4.642     2
N C1 C N 9 180.0 1.67111 3   sN   sC1    sC    sN     9    1.67111   1.160     3
N C1 C N 9 0.0 0.31419 4   sN   sC1    sC    sN     9    0.31419   0.218     4
N C5 CT CT 9 180.0 4.37772 1   sN   sC5   sCT   sCT     9    4.37772   3.039     1
N C5 CT CT 9 180.0 0.75730 2   sN   sC5   sCT   sCT     9    0.75730   0.526     2
N C5 CT CT 9 180.0 0.14811 3   sN   sC5   sCT   sCT     9    0.14811   0.103     3
N C5 CT CT 9 0.0 0.41966 4   sN   sC5   sCT   sCT     9    0.41966   0.291     4
N C5 CT CT 9 0.0 0.54308 5   sN   sC5   sCT   sCT     9    0.54308   0.377     5
N C5 CT CT 9 180.0 0.44373 6   sN   sC5   sCT   sCT     9    0.44373   0.308     6
N C7 C N 9 180.0 1.88280 1   sN   sC7    sC    sN     9    1.88280   1.307     1
N C7 C N 9 180.0 6.61072 2   sN   sC7    sC    sN     9    6.61072   4.590     2
N C7 C N 9 180.0 2.30120 3   sN   sC7    sC    sN     9    2.30120   1.598     3
N CT C8 CT 9 0.0 0.25104 1   sN   sCT   sC8   sCT     9    0.25104   0.174     1
N CT C8 CT 9 180.0 2.09200 2   sN   sCT   sC8   sCT     9    2.09200   1.452     2
N CT C8 CT 9 0.0 0.62760 3   sN   sCT   sC8   sCT     9    0.62760   0.436     3
N CT C8 CT 9 180.0 0.27196 4   sN   sCT   sC8   sCT     9    0.27196   0.189     4
N CT C8 O3 9 180.0 0.33472 1   sN   sCT   sC8   sO3     9    0.33472   0.232     1
N CT C8 OH 9 180.0 1.04600 1   sN   sCT   sC8   sOH     9    1.04600   0.726     1
N CT C N 9 360.0 0.82425 1   sN   sCT    sC    sN     9    0.82425   0.572     1
N CT C N 9 180.0 6.04588 2   sN   sCT    sC    sN     9    6.04588   4.198     2
N CT C N 9 180.0 2.00414 3   sN   sCT    sC    sN     9    2.00414   1.391     3
N CT C N 9 360.0 0.07991 4   sN   sCT    sC    sN     9    0.07991   0.055     4
N CT C N 9 360.0 0.01674 5   sN   sCT    sC    sN     9    0.01674   0.012     5
N CT CT C3 9 0.0 0.81630 1   sN   sCT   sCT   sC3     9    0.81630   0.567     1
N CT CT C3 9 180.0 3.53925 2   sN   sCT   sCT   sC3     9    3.53925   2.457     2
N CT CT C5 9 180.0 2.63592 1   sN   sCT   sCT   sC5     9    2.63592   1.830     1
N CT CT C6 9 180.0 12.05410 1   sN   sCT   sCT   sC6     9    12.05410  8.369     1
N CT CT C6 9 180.0 5.06682 2   sN   sCT   sCT   sC6     9    5.06682   3.518     2
N CT CT C6 9 0.0 0.25941 3   sN   sCT   sCT   sC6     9    0.25941   0.180     3
N CT CT C6 9 0.0 1.02508 4   sN   sCT   sCT   sC6     9    1.02508   0.712     4
N CT CT C6 9 0.0 0.54810 5   sN   sCT   sCT   sC6     9    0.54810   0.381     5
N CT CT C6 9 180.0 0.59413 6   sN   sCT   sCT   sC6     9    0.59413   0.412     6
N CT CT C9 9 0.0 0.41840 1   sN   sCT   sCT   sC9     9    0.41840   0.290     1
N CT CT CC 9 180.0 1.67360 1   sN   sCT   sCT   sCC     9    1.67360   1.162     1
N CT CT SH 9 180.0 2.30120 1   sN   sCT   sCT   sSH     9    2.30120   1.598     1
N CT CT SH 9 180.0 2.63592 2   sN   sCT   sCT   sSH     9    2.63592   1.830     2
N CT CT SH 9 180.0 0.25104 3   sN   sCT   sCT   sSH     9    0.25104   0.174     3
N CT CT SH 9 180.0 0.12552 4   sN   sCT   sCT   sSH     9    0.12552   0.087     4
O C OS CT 9 180.0 5.85760 1   sO    sC   sOS   sCT     9    5.85760   4.067     1
O C OS CT 9 180.0 11.29680 2   sO    sC   sOS   sCT     9    11.29680  7.843     2
OH CT CT OH 9 0.0 0.60250 3  sOH   sCT   sCT   sOH     9    0.60250   0.418     3
OH CT CT OH 9 0.0 4.91620 2  sOH   sCT   sCT   sOH     9    4.91620   3.413     2
OH P OS CT 9 0.0 1.04600 3  sOH    sP   sOS   sCT     9    1.04600   0.726     3
OH P OS CT 9 0.0 5.02080 2  sOH    sP   sOS   sCT     9    5.02080   3.486     2
OS CT CT OH 9 0.0 0.60250 3  sOS   sCT   sCT   sOH     9    0.60250   0.418     3
OS CT CT OH 9 0.0 4.91620 2  sOS   sCT   sCT   sOH     9    4.91620   3.413     2
OS CT CT OS 9 0.0 4.91620 2  sOS   sCT   sCT   sOS     9    4.91620   3.413     2
OS CT CT OS 9 0.0 0.60250 3  sOS   sCT   sCT   sOS     9    0.60250   0.418     3
OS CT N* CK 9 0.0 10.46000 1  sOS   sCT   sN*   sCK     9    10.46000  7.262     1
OS CT N* CM 9 0.0 10.46000 1  sOS   sCT   sN*   sCM     9    10.46000  7.262     1
OS P OS CT 9 0.0 5.02080 2  sOS    sP   sOS   sCT     9    5.02080   3.486     2
OS P OS CT 9 0.0 1.04600 3  sOS    sP   sOS   sCT     9    1.04600   0.726     3
N CT CT CA 9 0.0 0.00000 0   sN   sCT   sCT   sCA     9    0.00000   0.000     0
N CT CT C* 9 0.0 0.00000 0   sN   sCT   sCT   sC*     9    0.00000   0.000     0
CT CT C9 S 9 0.0 0.00000 0  sCT   sCT   sC9    sS     9    0.00000   0.000     0
CT CT C9 CT 9 0.0 0.00000 0  sCT   sCT   sC9   sCT     9    0.00000   0.000     0
X C1 N3 X 9 0.0 0.65084 3    X   sC1   sN3     X     9    0.65084   0.452     3
X C5 N X 9 180.0 10.46000 2    X   sC5    sN     X     9    10.46000  7.262     2
X C7 CT X 9 0.0 0.65084 3    X   sC7   sCT     X     9    0.65084   0.452     3
X C7 N3 X 9 0.0 0.65084 3    X   sC7   sN3     X     9    0.65084   0.452     3
X C8 O3 X 9 0.0 0.69873 3    X   sC8   sO3     X     9    0.69873   0.485     3
X C8 OH X 9 0.0 0.69873 3    X   sC8   sOH     X     9    0.69873   0.485     3
X C9 S X 9 0.0 1.39327 3    X   sC9    sS     X     9    1.39327   0.967     3
X CA CA X 9 180.0 15.16700 2    X   sCA   sCA     X     9    15.16700  10.530    2
X CA CB X 9 180.0 14.64400 2    X   sCA   sCB     X     9    14.64400  10.167    2
X CA CM X 9 180.0 10.66920 2    X   sCA   sCM     X     9    10.66920  7.407     2
X CA CN X 9 180.0 15.16700 2    X   sCA   sCN     X     9    15.16700  10.530    2
X CA N2 X 9 180.0 10.04160 2    X   sCA   sN2     X     9    10.04160  6.972     2
X CA NA X 9 180.0 6.27600 2    X   sCA   sNA     X     9    6.27600   4.357     2
X CA NC X 9 180.0 20.08320 2    X   sCA   sNC     X     9    20.08320  13.943    2
X CA OH X 9 180.0 3.76560 2    X   sCA   sOH     X     9    3.76560   2.614     2
X CB CB X 9 180.0 22.80280 2    X   sCB   sCB     X     9    22.80280  15.832    2
X CB CN X 9 180.0 12.55200 2    X   sCB   sCN     X     9    12.55200  8.715     2
X CB NB X 9 180.0 10.66920 2    X   sCB   sNB     X     9    10.66920  7.407     2
X CB NC X 9 180.0 17.36360 2    X   sCB   sNC     X     9    17.36360  12.055    2
X CB N* X 9 180.0 6.90360 2    X   sCB   sN*     X     9    6.90360   4.793     2
X C CA X 9 180.0 15.16700 2    X    sC   sCA     X     9    15.16700  10.530    2
X C CB X 9 180.0 12.55200 2    X    sC   sCB     X     9    12.55200  8.715     2
X C* CB X 9 180.0 7.00820 2    X   sC*   sCB     X     9    7.00820   4.866     2
X CC CV X 9 180.0 21.54760 2    X   sCC   sCV     X     9    21.54760  14.960    2
X CC CW X 9 180.0 22.48900 2    X   sCC   sCW     X     9    22.48900  15.614    2
X C CM X 9 180.0 9.10020 2    X    sC   sCM     X     9    9.10020   6.318     2
X CC NA X 9 180.0 5.85760 2    X   sCC   sNA     X     9    5.85760   4.067     2
X CC NB X 9 180.0 10.04160 2    X   sCC   sNB     X     9    10.04160  6.972     2
X C* CW X 9 180.0 27.30060 2    X   sC*   sCW     X     9    27.30060  18.954    2
X C C X 9 180.0 15.16700 2    X    sC    sC     X     9    15.16700  10.530    2
X CK NB X 9 180.0 41.84000 2    X   sCK   sNB     X     9    41.84000  29.049    2
X CK N* X 9 180.0 7.11280 2    X   sCK   sN*     X     9    7.11280   4.938     2
X CM CM X 9 180.0 27.82360 2    X   sCM   sCM     X     9    27.82360  19.317    2
X CM N* X 9 180.0 7.74040 2    X   sCM   sN*     X     9    7.74040   5.374     2
X CM OS X 9 180.0 4.39320 2    X   sCM   sOS     X     9    4.39320   3.050     2
X C NA X 9 180.0 5.64840 2    X    sC   sNA     X     9    5.64840   3.922     2
X C NC X 9 180.0 16.73600 2    X    sC   sNC     X     9    16.73600  11.620    2
X CN NA X 9 180.0 6.38060 2    X   sCN   sNA     X     9    6.38060   4.430     2
X C N X 9 180.0 10.46000 2    X    sC    sN     X     9    10.46000  7.262     2
X C N* X 9 180.0 6.06680 2    X    sC   sN*     X     9    6.06680   4.212     2
X C OH X 9 180.0 9.62320 2    X    sC   sOH     X     9    9.62320   6.681     2
X C OS X 9 180.0 11.29680 2    X    sC   sOS     X     9    11.29680  7.843     2
X C O X 9 180.0 11.71520 2    X    sC    sO     X     9    11.71520  8.134     2
X C OB X 9 180.0 11.71520 2    X    sC   sOB     X     9    11.71520  8.134     2
X CQ NC X 9 180.0 28.45120 2    X   sCQ   sNC     X     9    28.45120  19.753    2
X CR NA X 9 180.0 9.72780 2    X   sCR   sNA     X     9    9.72780   6.754     2
X CR NB X 9 180.0 20.92000 2    X   sCR   sNB     X     9    20.92000  14.524    2
X CT C8 X 9 0.0 0.64852 3    X   sCT   sC8     X     9    0.64852   0.450     3
X CT C9 X 9 0.0 0.64852 3    X   sCT   sC9     X     9    0.64852   0.450     3
X CT CT X 9 0.0 0.65084 3    X   sCT   sCT     X     9    0.65084   0.452     3
X CT N3 X 9 0.0 0.65084 3    X   sCT   sN3     X     9    0.65084   0.452     3
X CT OH X 9 0.0 0.69733 3    X   sCT   sOH     X     9    0.69733   0.484     3
X CT OS X 9 0.0 1.60387 3    X   sCT   sOS     X     9    1.60387   1.114     3
X CT SH X 9 0.0 1.04600 3    X   sCT   sSH     X     9    1.04600   0.726     3
X CT S X 9 0.0 1.39467 3    X   sCT    sS     X     9    1.39467   0.968     3
X CV NB X 9 180.0 10.04160 2    X   sCV   sNB     X     9    10.04160  6.972     2
X CW NA X 9 180.0 6.27600 2    X   sCW   sNA     X     9    6.27600   4.357     2
X OH P X 9 0.0 1.04600 3    X   sOH    sP     X     9    1.04600   0.726     3
X OS P X 9 0.0 1.04600 3    X   sOS    sP     X     9    1.04600   0.726     3
X C1 N X 9 0.0 0.00000 0    X   sC1    sN     X     9    0.00000   0.000     0
X C C1 X 9 0.0 0.00000 0    X    sC   sC1     X     9    0.00000   0.000     0
X C C9 X 9 0.0 0.00000 0    X    sC   sC9     X     9    0.00000   0.000     0
X C CT X 9 0.0 0.00000 0    X    sC   sCT     X     9    0.00000   0.000     0
X CA CT X 9 0.0 0.00000 0    X   sCA   sCT     X     9    0.00000   0.000     0
X CC CT X 9 0.0 0.00000 0    X   sCC   sCT     X     9    0.00000   0.000     0
X CM CT X 9 0.0 0.00000 0    X   sCM   sCT     X     9    0.00000   0.000     0
X CT N X 9 0.0 0.00000 0    X   sCT    sN     X     9    0.00000   0.000     0
X CT N* X 9 0.0 0.00000 0    X   sCT   sN*     X     9    0.00000   0.000     0
X CT N2 X 9 0.0 0.00000 0    X   sCT   sN2     X     9    0.00000   0.000     0
X C* CT X 9 0.0 0.00000 0    X   sC*   sCT     X     9    0.00000   0.000     0
X C7 N X 9 0.0 0.00000 0    X   sC7    sN     X     9    0.00000   0.000     0
X C C7 X 9 0.0 0.00000 0    X    sC   sC7     X     9    0.00000   0.000     0
X C5 CT X 9 0.0 0.00000 0    X   sC5   sCT     X     9    0.00000   0.000     0
X C6 CT X 9 0.0 0.00000 0    X   sC6   sCT     X     9    0.00000   0.000     0
C C1 N O 4 180.0 4.60240 2   sC   sC1    sN    sO     4    4.60240   2.970     2
C C1 N OB 4 180.0 4.60240 2   sC   sC1    sN   sOB     4    4.60240   2.970     2
C C1 N H 4 180.0 4.60240 2   sC   sC1    sN    sH     4    4.60240   2.970     2
C C1 N HB 4 180.0 4.60240 2   sC   sC1    sN   sHB     4    4.60240   2.970     2
C9 O C OH 4 180.0 43.93200 2  sC9    sO    sC   sOH     4    43.93200  28.355    2
CB CK N* CT 4 180.0 4.18400 2  sCB   sCK   sN*   sCT     4    4.18400   2.700     2
C CM N* CT 4 180.0 4.18400 2   sC   sCM   sN*   sCT     4    4.18400   2.700     2
CT O C OH 4 180.0 43.93200 2  sCT    sO    sC   sOH     4    43.93200  28.355    2
CT CV CC NA 4 180.0 4.60240 2  sCT   sCV   sCC   sNA     4    4.60240   2.970     2
CT CW CC NB 4 180.0 4.60240 2  sCT   sCW   sCC   sNB     4    4.60240   2.970     2
CT CC CW NB 4 180.0 4.60240 2  sCT   sCC   sCW   sNB     4    4.60240   2.970     2
CT CW CC NA 4 180.0 4.60240 2  sCT   sCW   sCC   sNA     4    4.60240   2.970     2
CB CT C* CW 4 180.0 4.60240 2  sCB   sCT   sC*   sCW     4    4.60240   2.970     2
CA CA CA CT 4 180.0 4.60240 2  sCA   sCA   sCA   sCT     4    4.60240   2.970     2
C CM CM CT 4 180.0 4.60240 2   sC   sCM   sCM   sCT     4    4.60240   2.970     2
CM N2 CA NC 4 180.0 4.60240 2  sCM   sN2   sCA   sNC     4    4.60240   2.970     2
CB N2 CA NC 4 180.0 4.60240 2  sCB   sN2   sCA   sNC     4    4.60240   2.970     2
N2 NA CA NC 4 180.0 4.60240 2  sN2   sNA   sCA   sNC     4    4.60240   2.970     2
CA CA C OH 4 180.0 4.60240 2  sCA   sCA    sC   sOH     4    4.60240   2.970     2
CA CA CA OH 4 180.0 4.60240 2  sCA   sCA   sCA   sOH     4    4.60240   2.970     2
H5 O C OH 4 180.0 4.60240 2  sH5    sO    sC   sOH     4    4.60240   2.970     2
H5 O C OS 4 180.0 4.60240 2  sH5    sO    sC   sOS     4    4.60240   2.970     2
CM CT CM HA 4 180.0 4.60240 2  sCM   sCT   sCM   sHA     4    4.60240   2.970     2
Br CA CA CA 4 180.0 4.60240 2  sBr   sCA   sCA   sCA     4    4.60240   2.970     2
CM H4 C O 4 180.0 4.60240 2  sCM   sH4    sC    sO     4    4.60240   2.970     2
C CT N H 4 180.0 4.60240 2   sC   sCT    sN    sH     4    4.60240   2.970     2
C CT N HB 4 180.0 4.60240 2   sC   sCT    sN   sHB     4    4.60240   2.970     2
C CT N O 4 180.0 4.60240 2   sC   sCT    sN    sO     4    4.60240   2.970     2
C C7 N O 4 180.0 4.60240 2   sC   sC7    sN    sO     4    4.60240   2.970     2
C CT N OB 4 180.0 4.60240 2   sC   sCT    sN   sOB     4    4.60240   2.970     2
C C7 N OB 4 180.0 4.60240 2   sC   sC7    sN   sOB     4    4.60240   2.970     2
C C7 N H 4 180.0 4.60240 2   sC   sC7    sN    sH     4    4.60240   2.970     2
C C7 N HB 4 180.0 4.60240 2   sC   sC7    sN   sHB     4    4.60240   2.970     2
C5 CT N O 4 180.0 4.60240 2  sC5   sCT    sN    sO     4    4.60240   2.970     2
C5 CT N OB 4 180.0 4.60240 2  sC5   sCT    sN   sOB     4    4.60240   2.970     2
C5 CT N H 4 180.0 4.60240 2  sC5   sCT    sN    sH     4    4.60240   2.970     2
C5 CT N HB 4 180.0 4.60240 2  sC5   sCT    sN   sHB     4    4.60240   2.970     2
X CT N C1 4 180.0 4.18400 2    X   sCT    sN   sC1     4    4.18400   2.700     2
X CT N C7 4 180.0 4.18400 2    X   sCT    sN   sC7     4    4.18400   2.700     2
X O2 C6 O2 4 180.0 43.93200 2    X   sO2   sC6   sO2     4    43.93200  28.355    2
X O2 C O2 4 180.0 43.93200 2    X   sO2    sC   sO2     4    43.93200  28.355    2
X N2 CA N2 4 180.0 43.93200 2    X   sN2   sCA   sN2     4    43.93200  28.355    2
X CT N CT 4 180.0 4.18400 2    X   sCT    sN   sCT     4    4.18400   2.700     2
X X C O 4 180.0 43.93200 2    X     X    sC    sO     4    43.93200  28.355    2
X X C OB 4 180.0 43.93200 2    X     X    sC   sOB     4    43.93200  28.355    2
X X N H 4 180.0 4.18400 2    X     X    sN    sH     4    4.18400   2.700     2
X X N2 H 4 180.0 4.18400 2    X     X   sN2    sH     4    4.18400   2.700     2
X X NA H 4 180.0 4.18400 2    X     X   sNA    sH     4    4.18400   2.700     2
X X CA HA 4 180.0 4.60240 2    X     X   sCA   sHA     4    4.60240   2.970     2
X X CW H4 4 180.0 4.60240 2    X     X   sCW   sH4     4    4.60240   2.970     2
X X CR H5 4 180.0 4.60240 2    X     X   sCR   sH5     4    4.60240   2.970     2
X X CV H4 4 180.0 4.60240 2    X     X   sCV   sH4     4    4.60240   2.970     2
X X CQ H5 4 180.0 4.60240 2    X     X   sCQ   sH5     4    4.60240   2.970     2
X X CK H5 4 180.0 4.60240 2    X     X   sCK   sH5     4    4.60240   2.970     2
X X CM H4 4 180.0 4.60240 2    X     X   sCM   sH4     4    4.60240   2.970     2
X X CM HA 4 180.0 4.60240 2    X     X   sCM   sHA     4    4.60240   2.970     2
X X CA H4 4 180.0 4.60240 2    X     X   sCA   sH4     4    4.60240   2.970     2
X X CA H5 4 180.0 4.60240 2    X     X   sCA   sH5     4    4.60240   2.970     2
X X C5 O 4 180.0 43.93200 2    X     X   sC5    sO     4    43.93200  28.355    2
C8 CT C N 9 0.0 0.83680 1  sC8   sCT    sC    sN     9    0.83680   0.540     1
C8 CT C N 9 0.0 0.83680 2  sC8   sCT    sC    sN     9    0.83680   0.540     2
C8 CT C N 9 0.0 1.67360 3  sC8   sCT    sC    sN     9    1.67360   1.080     3
C8 CT N C 9 0.0 8.36800 1  sC8   sCT    sN    sC     9    8.36800   5.401     1
C8 CT N C 9 0.0 8.36800 2  sC8   sCT    sN    sC     9    8.36800   5.401     2
C8 CT N C 9 0.0 1.67360 3  sC8   sCT    sN    sC     9    1.67360   1.080     3
C CT C8 O3 9 180.0 4.18400 1   sC   sCT   sC8   sO3     9    4.18400   2.700     1
C CT C8 OH 9 180.0 3.76560 1   sC   sCT   sC8   sOH     9    3.76560   2.430     1
C CT CT C4 9 0.0 2.39074 1   sC   sCT   sCT   sC4     9    2.39074   1.543     1
C CT CT C4 9 180.0 1.49913 2   sC   sCT   sCT   sC4     9    1.49913   0.968     2
C CT CT C4 9 0.0 0.56400 3   sC   sCT   sCT   sC4     9    0.56400   0.364     3
C CT CT C5 9 0.0 0.71421 1   sC   sCT   sCT   sC5     9    0.71421   0.461     1
C CT CT C5 9 180.0 2.49241 2   sC   sCT   sCT   sC5     9    2.49241   1.609     2
C CT CT C5 9 0.0 0.49580 3   sC   sCT   sCT   sC5     9    0.49580   0.320     3
C CT CT C5 9 180.0 1.74556 4   sC   sCT   sCT   sC5     9    1.74556   1.127     4
C CT CT C5 9 0.0 0.43597 5   sC   sCT   sCT   sC5     9    0.43597   0.281     5
C CT CT C5 9 180.0 0.42142 6   sC   sCT   sCT   sC5     9    0.42142   0.272     6
C CT CT C* 9 0.0 1.21336 1   sC   sCT   sCT   sC*     9    1.21336   0.783     1
C CT CT C9 9 0.0 1.25520 1   sC   sCT   sCT   sC9     9    1.25520   0.810     1
C CT CT CA 9 0.0 2.17568 1   sC   sCT   sCT   sCA     9    2.17568   1.404     1
C CT CT CC 9 0.0 2.92880 1   sC   sCT   sCT   sCC     9    2.92880   1.890     1
C CT CT SH 9 180.0 0.66944 1   sC   sCT   sCT   sSH     9    0.66944   0.432     1
Cl CT CT Cl 9 180.0 1.88280 1  sCl   sCT   sCT   sCl     9    1.88280   1.215     1
CM CM C O 9 180.0 9.10020 2  sCM   sCM    sC    sO     9    9.10020   5.873     2
CM CM C O 9 0.0 1.25520 3  sCM   sCM    sC    sO     9    1.25520   0.810     3
C N C1 C 9 0.0 0.35267 1   sC    sN   sC1    sC     9    0.35267   0.228     1
C N C1 C 9 0.0 1.59541 2   sC    sN   sC1    sC     9    1.59541   1.030     2
C N C1 C 9 180.0 0.08381 3   sC    sN   sC1    sC     9    0.08381   0.054     3
C N C1 C 9 0.0 0.32396 4   sC    sN   sC1    sC     9    0.32396   0.209     4
C N C7 C 9 0.0 1.12968 2   sC    sN   sC7    sC     9    1.12968   0.729     2
C N C7 C 9 0.0 1.75728 3   sC    sN   sC7    sC     9    1.75728   1.134     3
C N CT C 9 180.0 0.14226 1   sC    sN   sCT    sC     9    0.14226   0.092     1
C N CT C 9 0.0 1.40164 2   sC    sN   sCT    sC     9    1.40164   0.905     2
C N CT C 9 0.0 2.27610 3   sC    sN   sCT    sC     9    2.27610   1.469     3
C N CT C 9 0.0 0.33472 4   sC    sN   sCT    sC     9    0.33472   0.216     4
CT C7 C N 9 0.0 0.83680 1  sCT   sC7    sC    sN     9    0.83680   0.540     1
CT C7 C N 9 0.0 0.83680 2  sCT   sC7    sC    sN     9    0.83680   0.540     2
CT C7 C N 9 0.0 1.67360 3  sCT   sC7    sC    sN     9    1.67360   1.080     3
CT C7 N C 9 0.0 8.36800 1  sCT   sC7    sN    sC     9    8.36800   5.401     1
CT C7 N C 9 0.0 8.36800 2  sCT   sC7    sN    sC     9    8.36800   5.401     2
CT C7 N C 9 0.0 1.67360 3  sCT   sC7    sN    sC     9    1.67360   1.080     3
CT C9 C O2 9 180.0 2.51040 2  sCT   sC9    sC   sO2     9    2.51040   1.620     2
CT C9 C O 9 180.0 2.51040 2  sCT   sC9    sC    sO     9    2.51040   1.620     2
CT C9 C OB 9 180.0 2.51040 2  sCT   sC9    sC   sOB     9    2.51040   1.620     2
CT CM CM CT 9 180.0 27.82360 2  sCT   sCM   sCM   sCT     9    27.82360  17.958    2
CT CM CM CT 9 180.0 7.94960 1  sCT   sCM   sCM   sCT     9    7.94960   5.131     1
CT CT C4 CT 9 0.0 0.62760 3  sCT   sCT   sC4   sCT     9    0.62760   0.405     3
CT CT C5 O 9 180.0 4.18400 1  sCT   sCT   sC5    sO     9    4.18400   2.700     1
CT CT C6 O2 9 180.0 0.77822 4  sCT   sCT   sC6   sO2     9    0.77822   0.502     4
CT CT C6 O2 9 180.0 1.48114 6  sCT   sCT   sC6   sO2     9    1.48114   0.956     6
CT CT C6 O2 9 180.0 3.65263 2  sCT   sCT   sC6   sO2     9    3.65263   2.357     2
CT CT C* CW 9 0.0 5.02080 1  sCT   sCT   sC*   sCW     9    5.02080   3.241     1
CT CT C N 9 0.0 0.83680 1  sCT   sCT    sC    sN     9    0.83680   0.540     1
CT CT C N 9 0.0 0.83680 2  sCT   sCT    sC    sN     9    0.83680   0.540     2
CT CT C N 9 0.0 1.67360 3  sCT   sCT    sC    sN     9    1.67360   1.080     3
CT CT CT C3 9 0.0 0.62760 3  sCT   sCT   sCT   sC3     9    0.62760   0.405     3
CT CT CT C7 9 0.0 0.75312 3  sCT   sCT   sCT   sC7     9    0.75312   0.486     3
CT CT CT C7 9 180.0 0.83680 1  sCT   sCT   sCT   sC7     9    0.83680   0.540     1
CT CT CT C7 9 180.0 1.04600 2  sCT   sCT   sCT   sC7     9    1.04600   0.675     2
CT CT CT CT 9 0.0 0.62760 3  sCT   sCT   sCT   sCT     9    0.62760   0.405     3
CT CT N C 9 0.0 1.67360 3  sCT   sCT    sN    sC     9    1.67360   1.080     3
CT CT N C 9 0.0 8.36800 1  sCT   sCT    sN    sC     9    8.36800   5.401     1
CT CT N C 9 0.0 8.36800 2  sCT   sCT    sN    sC     9    8.36800   5.401     2
CT CT OS C 9 0.0 1.60247 3  sCT   sCT   sOS    sC     9    1.60247   1.034     3
CT CT OS C 9 180.0 3.34720 1  sCT   sCT   sOS    sC     9    3.34720   2.160     1
CT CT OS CT 9 0.0 1.60247 3  sCT   sCT   sOS   sCT     9    1.60247   1.034     3
CT CT OS CT 9 180.0 0.41840 2  sCT   sCT   sOS   sCT     9    0.41840   0.270     2
CT CT SH HS 9 0.0 0.83680 3  sCT   sCT   sSH   sHS     9    0.83680   0.540     3
CT CT SH HS 9 0.0 2.09200 2  sCT   sCT   sSH   sHS     9    2.09200   1.350     2
CT OS CT N* 9 0.0 1.60247 3  sCT   sOS   sCT   sN*     9    1.60247   1.034     3
CT OS CT N* 9 0.0 2.71960 2  sCT   sOS   sCT   sN*     9    2.71960   1.755     2
CT OS CT OS 9 0.0 0.41840 3  sCT   sOS   sCT   sOS     9    0.41840   0.270     3
CT OS CT OS 9 180.0 3.55640 2  sCT   sOS   sCT   sOS     9    3.55640   2.295     2
CT OS CT OS 9 180.0 5.64840 1  sCT   sOS   sCT   sOS     9    5.64840   3.646     1
CT S S CT 9 0.0 14.64400 2  sCT    sS    sS   sCT     9    14.64400  9.452     2
CT S S CT 9 0.0 2.51040 3  sCT    sS    sS   sCT     9    2.51040   1.620     3
F CT CT F 9 180.0 5.02080 1   sF   sCT   sCT    sF     9    5.02080   3.241     1
H1 C1 C O 9 0.0 3.34720 1  sH1   sC1    sC    sO     9    3.34720   2.160     1
H1 C1 C O 9 180.0 0.33472 3  sH1   sC1    sC    sO     9    0.33472   0.216     3
H1 C7 C O 9 0.0 3.34720 1  sH1   sC7    sC    sO     9    3.34720   2.160     1
H1 C7 C O 9 180.0 0.33472 3  sH1   sC7    sC    sO     9    0.33472   0.216     3
H1 CT C O 9 0.0 3.34720 1  sH1   sCT    sC    sO     9    3.34720   2.160     1
H1 CT C O 9 180.0 0.33472 3  sH1   sCT    sC    sO     9    0.33472   0.216     3
H1 C1 C OB 9 0.0 3.34720 1  sH1   sC1    sC   sOB     9    3.34720   2.160     1
H1 C1 C OB 9 180.0 0.33472 3  sH1   sC1    sC   sOB     9    0.33472   0.216     3
H1 C7 C OB 9 0.0 3.34720 1  sH1   sC7    sC   sOB     9    3.34720   2.160     1
H1 C7 C OB 9 180.0 0.33472 3  sH1   sC7    sC   sOB     9    0.33472   0.216     3
H1 CT C OB 9 0.0 3.34720 1  sH1   sCT    sC   sOB     9    3.34720   2.160     1
H1 CT C OB 9 180.0 0.33472 3  sH1   sCT    sC   sOB     9    0.33472   0.216     3
H1 CT CT Br 9 0.0 2.30120 1  sH1   sCT   sCT   sBr     9    2.30120   1.485     1
H1 CT CT Cl 9 0.0 1.04600 1  sH1   sCT   sCT   sCl     9    1.04600   0.675     1
H1 CT CT F 9 0.0 0.79496 1  sH1   sCT   sCT    sF     9    0.79496   0.513     1
H1 CT CT OH 9 0.0 1.04600 1  sH1   sCT   sCT   sOH     9    1.04600   0.675     1
H1 CT CT OS 9 0.0 1.04600 1  sH1   sCT   sCT   sOS     9    1.04600   0.675     1
HC C3 CT CT 9 0.0 0.66944 3  sHC   sC3   sCT   sCT     9    0.66944   0.432     3
HC C4 CT CT 9 0.0 0.66944 3  sHC   sC4   sCT   sCT     9    0.66944   0.432     3
HC C4 CT HC 9 0.0 0.62760 3  sHC   sC4   sCT   sHC     9    0.62760   0.405     3
HC CT C3 HC 9 0.0 0.62760 3  sHC   sCT   sC3   sHC     9    0.62760   0.405     3
HC CT C4 CT 9 0.0 0.66944 3  sHC   sCT   sC4   sCT     9    0.66944   0.432     3
HC CT C5 O 9 0.0 3.34720 1  sHC   sCT   sC5    sO     9    3.34720   2.160     1
HC CT C5 O 9 180.0 0.33472 3  sHC   sCT   sC5    sO     9    0.33472   0.216     3
HC CT CM CM 9 0.0 4.81160 1  sHC   sCT   sCM   sCM     9    4.81160   3.106     1
HC CT CM CM 9 180.0 1.58992 3  sHC   sCT   sCM   sCM     9    1.58992   1.026     3
HC CT C O 9 0.0 3.34720 1  sHC   sCT    sC    sO     9    3.34720   2.160     1
HC CT C O 9 180.0 0.33472 3  sHC   sCT    sC    sO     9    0.33472   0.216     3
HC CT C OB 9 0.0 3.34720 1  sHC   sCT    sC   sOB     9    3.34720   2.160     1
HC CT C OB 9 180.0 0.33472 3  sHC   sCT    sC   sOB     9    0.33472   0.216     3
HC CT CT Br 9 0.0 2.30120 1  sHC   sCT   sCT   sBr     9    2.30120   1.485     1
HC CT CT C3 9 0.0 0.66944 3  sHC   sCT   sCT   sC3     9    0.66944   0.432     3
HC CT CT C4 9 0.0 0.66944 3  sHC   sCT   sCT   sC4     9    0.66944   0.432     3
HC CT CT C7 9 0.0 0.66944 3  sHC   sCT   sCT   sC7     9    0.66944   0.432     3
HC CT CT Cl 9 0.0 1.04600 1  sHC   sCT   sCT   sCl     9    1.04600   0.675     1
HC CT CT CT 9 0.0 0.66944 3  sHC   sCT   sCT   sCT     9    0.66944   0.432     3
HC CT CT F 9 0.0 0.79496 1  sHC   sCT   sCT    sF     9    0.79496   0.513     1
HC CT CT HC 9 0.0 0.62760 3  sHC   sCT   sCT   sHC     9    0.62760   0.405     3
HC CT CT OH 9 0.0 1.04600 1  sHC   sCT   sCT   sOH     9    1.04600   0.675     1
HC CT CT OS 9 0.0 1.04600 1  sHC   sCT   sCT   sOS     9    1.04600   0.675     1
H N C5 O 9 0.0 8.36800 1   sH    sN   sC5    sO     9    8.36800   5.401     1
H N C5 O 9 180.0 10.46000 2   sH    sN   sC5    sO     9    10.46000  6.751     2
H N C O 9 0.0 8.36800 1   sH    sN    sC    sO     9    8.36800   5.401     1
H N C O 9 180.0 10.46000 2   sH    sN    sC    sO     9    10.46000  6.751     2
HB N C OB 9 0.0 8.36800 1  sHB    sN    sC   sOB     9    8.36800   5.401     1
HB N C OB 9 180.0 10.46000 2  sHB    sN    sC   sOB     9    10.46000  6.751     2
HO O3 C8 CT 9 0.0 0.35982 1  sHO   sO3   sC8   sCT     9    0.35982   0.232     1
HO O3 C8 CT 9 0.0 0.41840 3  sHO   sO3   sC8   sCT     9    0.41840   0.270     3
HO O3 C8 CT 9 180.0 0.68199 2  sHO   sO3   sC8   sCT     9    0.68199   0.440     2
HO O3 C8 H1 9 0.0 0.41840 3  sHO   sO3   sC8   sH1     9    0.41840   0.270     3
HO OH C8 CT 9 0.0 0.25104 2  sHO   sOH   sC8   sCT     9    0.25104   0.162     2
HO OH C8 CT 9 0.0 0.83680 3  sHO   sOH   sC8   sCT     9    0.83680   0.540     3
HO OH C8 CT 9 0.0 3.13800 1  sHO   sOH   sC8   sCT     9    3.13800   2.025     1
HO OH C O 9 0.0 7.94960 1  sHO   sOH    sC    sO     9    7.94960   5.131     1
HO OH C O 9 180.0 9.62320 2  sHO   sOH    sC    sO     9    9.62320   6.211     2
HO OH CT CT 9 0.0 0.66944 3  sHO   sOH   sCT   sCT     9    0.66944   0.432     3
HO OH CT CT 9 0.0 1.04600 1  sHO   sOH   sCT   sCT     9    1.04600   0.675     1
N3 CT CT C3 9 0.0 0.81630 1  sN3   sCT   sCT   sC3     9    0.81630   0.527     1
N3 CT CT C3 9 180.0 3.53925 2  sN3   sCT   sCT   sC3     9    3.53925   2.284     2
N3 CT CT C6 9 180.0 11.02568 1  sN3   sCT   sCT   sC6     9    11.02568  7.116     1
N3 CT CT C6 9 180.0 4.98022 2  sN3   sCT   sCT   sC6     9    4.98022   3.214     2
N3 CT CT C6 9 180.0 0.02845 3  sN3   sCT   sCT   sC6     9    0.02845   0.018     3
N3 CT CT C6 9 0.0 1.76858 4  sN3   sCT   sCT   sC6     9    1.76858   1.141     4
N3 CT CT C6 9 0.0 0.96943 5  sN3   sCT   sCT   sC6     9    0.96943   0.626     5
N3 CT CT C6 9 180.0 0.89009 6  sN3   sCT   sCT   sC6     9    0.89009   0.574     6
N C1 C N 9 180.0 2.69445 1   sN   sC1    sC    sN     9    2.69445   1.739     1
N C1 C N 9 180.0 6.68666 2   sN   sC1    sC    sN     9    6.68666   4.316     2
N C1 C N 9 180.0 1.67111 3   sN   sC1    sC    sN     9    1.67111   1.079     3
N C1 C N 9 0.0 0.31419 4   sN   sC1    sC    sN     9    0.31419   0.203     4
N C5 CT CT 9 180.0 4.37772 1   sN   sC5   sCT   sCT     9    4.37772   2.825     1
N C5 CT CT 9 180.0 0.75730 2   sN   sC5   sCT   sCT     9    0.75730   0.489     2
N C5 CT CT 9 180.0 0.14811 3   sN   sC5   sCT   sCT     9    0.14811   0.096     3
N C5 CT CT 9 0.0 0.41966 4   sN   sC5   sCT   sCT     9    0.41966   0.271     4
N C5 CT CT 9 0.0 0.54308 5   sN   sC5   sCT   sCT     9    0.54308   0.351     5
N C5 CT CT 9 180.0 0.44373 6   sN   sC5   sCT   sCT     9    0.44373   0.286     6
N C7 C N 9 180.0 1.88280 1   sN   sC7    sC    sN     9    1.88280   1.215     1
N C7 C N 9 180.0 6.61072 2   sN   sC7    sC    sN     9    6.61072   4.267     2
N C7 C N 9 180.0 2.30120 3   sN   sC7    sC    sN     9    2.30120   1.485     3
N CT C8 CT 9 0.0 0.25104 1   sN   sCT   sC8   sCT     9    0.25104   0.162     1
N CT C8 CT 9 180.0 2.09200 2   sN   sCT   sC8   sCT     9    2.09200   1.350     2
N CT C8 CT 9 0.0 0.62760 3   sN   sCT   sC8   sCT     9    0.62760   0.405     3
N CT C8 CT 9 180.0 0.27196 4   sN   sCT   sC8   sCT     9    0.27196   0.176     4
N CT C8 O3 9 180.0 0.33472 1   sN   sCT   sC8   sO3     9    0.33472   0.216     1
N CT C8 OH 9 180.0 1.04600 1   sN   sCT   sC8   sOH     9    1.04600   0.675     1
N CT C N 9 360.0 0.82425 1   sN   sCT    sC    sN     9    0.82425   0.532     1
N CT C N 9 180.0 6.04588 2   sN   sCT    sC    sN     9    6.04588   3.902     2
N CT C N 9 180.0 2.00414 3   sN   sCT    sC    sN     9    2.00414   1.294     3
N CT C N 9 360.0 0.07991 4   sN   sCT    sC    sN     9    0.07991   0.052     4
N CT C N 9 360.0 0.01674 5   sN   sCT    sC    sN     9    0.01674   0.011     5
N CT CT C3 9 0.0 0.81630 1   sN   sCT   sCT   sC3     9    0.81630   0.527     1
N CT CT C3 9 180.0 3.53925 2   sN   sCT   sCT   sC3     9    3.53925   2.284     2
N CT CT C5 9 180.0 2.63592 1   sN   sCT   sCT   sC5     9    2.63592   1.701     1
N CT CT C6 9 180.0 12.05410 1   sN   sCT   sCT   sC6     9    12.05410  7.780     1
N CT CT C6 9 180.0 5.06682 2   sN   sCT   sCT   sC6     9    5.06682   3.270     2
N CT CT C6 9 0.0 0.25941 3   sN   sCT   sCT   sC6     9    0.25941   0.167     3
N CT CT C6 9 0.0 1.02508 4   sN   sCT   sCT   sC6     9    1.02508   0.662     4
N CT CT C6 9 0.0 0.54810 5   sN   sCT   sCT   sC6     9    0.54810   0.354     5
N CT CT C6 9 180.0 0.59413 6   sN   sCT   sCT   sC6     9    0.59413   0.383     6
N CT CT C9 9 0.0 0.41840 1   sN   sCT   sCT   sC9     9    0.41840   0.270     1
N CT CT CC 9 180.0 1.67360 1   sN   sCT   sCT   sCC     9    1.67360   1.080     1
N CT CT SH 9 180.0 2.30120 1   sN   sCT   sCT   sSH     9    2.30120   1.485     1
N CT CT SH 9 180.0 2.63592 2   sN   sCT   sCT   sSH     9    2.63592   1.701     2
N CT CT SH 9 180.0 0.25104 3   sN   sCT   sCT   sSH     9    0.25104   0.162     3
N CT CT SH 9 180.0 0.12552 4   sN   sCT   sCT   sSH     9    0.12552   0.081     4
O C OS CT 9 180.0 5.85760 1   sO    sC   sOS   sCT     9    5.85760   3.781     1
O C OS CT 9 180.0 11.29680 2   sO    sC   sOS   sCT     9    11.29680  7.291     2
OH CT CT OH 9 0.0 0.60250 3  sOH   sCT   sCT   sOH     9    0.60250   0.389     3
OH CT CT OH 9 0.0 4.91620 2  sOH   sCT   sCT   sOH     9    4.91620   3.173     2
OH P OS CT 9 0.0 1.04600 3  sOH    sP   sOS   sCT     9    1.04600   0.675     3
OH P OS CT 9 0.0 5.02080 2  sOH    sP   sOS   sCT     9    5.02080   3.241     2
OS CT CT OH 9 0.0 0.60250 3  sOS   sCT   sCT   sOH     9    0.60250   0.389     3
OS CT CT OH 9 0.0 4.91620 2  sOS   sCT   sCT   sOH     9    4.91620   3.173     2
OS CT CT OS 9 0.0 4.91620 2  sOS   sCT   sCT   sOS     9    4.91620   3.173     2
OS CT CT OS 9 0.0 0.60250 3  sOS   sCT   sCT   sOS     9    0.60250   0.389     3
OS CT N* CK 9 0.0 10.46000 1  sOS   sCT   sN*   sCK     9    10.46000  6.751     1
OS CT N* CM 9 0.0 10.46000 1  sOS   sCT   sN*   sCM     9    10.46000  6.751     1
OS P OS CT 9 0.0 5.02080 2  sOS    sP   sOS   sCT     9    5.02080   3.241     2
OS P OS CT 9 0.0 1.04600 3  sOS    sP   sOS   sCT     9    1.04600   0.675     3
N CT CT CA 9 0.0 0.00000 0   sN   sCT   sCT   sCA     9    0.00000   0.000     0
N CT CT C* 9 0.0 0.00000 0   sN   sCT   sCT   sC*     9    0.00000   0.000     0
CT CT C9 S 9 0.0 0.00000 0  sCT   sCT   sC9    sS     9    0.00000   0.000     0
CT CT C9 CT 9 0.0 0.00000 0  sCT   sCT   sC9   sCT     9    0.00000   0.000     0
X C1 N3 X 9 0.0 0.65084 3    X   sC1   sN3     X     9    0.65084   0.420     3
X C5 N X 9 180.0 10.46000 2    X   sC5    sN     X     9    10.46000  6.751     2
X C7 CT X 9 0.0 0.65084 3    X   sC7   sCT     X     9    0.65084   0.420     3
X C7 N3 X 9 0.0 0.65084 3    X   sC7   sN3     X     9    0.65084   0.420     3
X C8 O3 X 9 0.0 0.69873 3    X   sC8   sO3     X     9    0.69873   0.451     3
X C8 OH X 9 0.0 0.69873 3    X   sC8   sOH     X     9    0.69873   0.451     3
X C9 S X 9 0.0 1.39327 3    X   sC9    sS     X     9    1.39327   0.899     3
X CA CA X 9 180.0 15.16700 2    X   sCA   sCA     X     9    15.16700  9.789     2
X CA CB X 9 180.0 14.64400 2    X   sCA   sCB     X     9    14.64400  9.452     2
X CA CM X 9 180.0 10.66920 2    X   sCA   sCM     X     9    10.66920  6.886     2
X CA CN X 9 180.0 15.16700 2    X   sCA   sCN     X     9    15.16700  9.789     2
X CA N2 X 9 180.0 10.04160 2    X   sCA   sN2     X     9    10.04160  6.481     2
X CA NA X 9 180.0 6.27600 2    X   sCA   sNA     X     9    6.27600   4.051     2
X CA NC X 9 180.0 20.08320 2    X   sCA   sNC     X     9    20.08320  12.962    2
X CA OH X 9 180.0 3.76560 2    X   sCA   sOH     X     9    3.76560   2.430     2
X CB CB X 9 180.0 22.80280 2    X   sCB   sCB     X     9    22.80280  14.717    2
X CB CN X 9 180.0 12.55200 2    X   sCB   sCN     X     9    12.55200  8.101     2
X CB NB X 9 180.0 10.66920 2    X   sCB   sNB     X     9    10.66920  6.886     2
X CB NC X 9 180.0 17.36360 2    X   sCB   sNC     X     9    17.36360  11.207    2
X CB N* X 9 180.0 6.90360 2    X   sCB   sN*     X     9    6.90360   4.456     2
X C CA X 9 180.0 15.16700 2    X    sC   sCA     X     9    15.16700  9.789     2
X C CB X 9 180.0 12.55200 2    X    sC   sCB     X     9    12.55200  8.101     2
X C* CB X 9 180.0 7.00820 2    X   sC*   sCB     X     9    7.00820   4.523     2
X CC CV X 9 180.0 21.54760 2    X   sCC   sCV     X     9    21.54760  13.907    2
X CC CW X 9 180.0 22.48900 2    X   sCC   sCW     X     9    22.48900  14.515    2
X C CM X 9 180.0 9.10020 2    X    sC   sCM     X     9    9.10020   5.873     2
X CC NA X 9 180.0 5.85760 2    X   sCC   sNA     X     9    5.85760   3.781     2
X CC NB X 9 180.0 10.04160 2    X   sCC   sNB     X     9    10.04160  6.481     2
X C* CW X 9 180.0 27.30060 2    X   sC*   sCW     X     9    27.30060  17.620    2
X C C X 9 180.0 15.16700 2    X    sC    sC     X     9    15.16700  9.789     2
X CK NB X 9 180.0 41.84000 2    X   sCK   sNB     X     9    41.84000  27.004    2
X CK N* X 9 180.0 7.11280 2    X   sCK   sN*     X     9    7.11280   4.591     2
X CM CM X 9 180.0 27.82360 2    X   sCM   sCM     X     9    27.82360  17.958    2
X CM N* X 9 180.0 7.74040 2    X   sCM   sN*     X     9    7.74040   4.996     2
X CM OS X 9 180.0 4.39320 2    X   sCM   sOS     X     9    4.39320   2.835     2
X C NA X 9 180.0 5.64840 2    X    sC   sNA     X     9    5.64840   3.646     2
X C NC X 9 180.0 16.73600 2    X    sC   sNC     X     9    16.73600  10.802    2
X CN NA X 9 180.0 6.38060 2    X   sCN   sNA     X     9    6.38060   4.118     2
X C N X 9 180.0 10.46000 2    X    sC    sN     X     9    10.46000  6.751     2
X C N* X 9 180.0 6.06680 2    X    sC   sN*     X     9    6.06680   3.916     2
X C OH X 9 180.0 9.62320 2    X    sC   sOH     X     9    9.62320   6.211     2
X C OS X 9 180.0 11.29680 2    X    sC   sOS     X     9    11.29680  7.291     2
X C O X 9 180.0 11.71520 2    X    sC    sO     X     9    11.71520  7.561     2
X C OB X 9 180.0 11.71520 2    X    sC   sOB     X     9    11.71520  7.561     2
X CQ NC X 9 180.0 28.45120 2    X   sCQ   sNC     X     9    28.45120  18.363    2
X CR NA X 9 180.0 9.72780 2    X   sCR   sNA     X     9    9.72780   6.279     2
X CR NB X 9 180.0 20.92000 2    X   sCR   sNB     X     9    20.92000  13.502    2
X CT C8 X 9 0.0 0.64852 3    X   sCT   sC8     X     9    0.64852   0.419     3
X CT C9 X 9 0.0 0.64852 3    X   sCT   sC9     X     9    0.64852   0.419     3
X CT CT X 9 0.0 0.65084 3    X   sCT   sCT     X     9    0.65084   0.420     3
X CT N3 X 9 0.0 0.65084 3    X   sCT   sN3     X     9    0.65084   0.420     3
X CT OH X 9 0.0 0.69733 3    X   sCT   sOH     X     9    0.69733   0.450     3
X CT OS X 9 0.0 1.60387 3    X   sCT   sOS     X     9    1.60387   1.035     3
X CT SH X 9 0.0 1.04600 3    X   sCT   sSH     X     9    1.04600   0.675     3
X CT S X 9 0.0 1.39467 3    X   sCT    sS     X     9    1.39467   0.900     3
X CV NB X 9 180.0 10.04160 2    X   sCV   sNB     X     9    10.04160  6.481     2
X CW NA X 9 180.0 6.27600 2    X   sCW   sNA     X     9    6.27600   4.051     2
X OH P X 9 0.0 1.04600 3    X   sOH    sP     X     9    1.04600   0.675     3
X OS P X 9 0.0 1.04600 3    X   sOS    sP     X     9    1.04600   0.675     3
X C1 N X 9 0.0 0.00000 0    X   sC1    sN     X     9    0.00000   0.000     0
X C C1 X 9 0.0 0.00000 0    X    sC   sC1     X     9    0.00000   0.000     0
X C C9 X 9 0.0 0.00000 0    X    sC   sC9     X     9    0.00000   0.000     0
X C CT X 9 0.0 0.00000 0    X    sC   sCT     X     9    0.00000   0.000     0
X CA CT X 9 0.0 0.00000 0    X   sCA   sCT     X     9    0.00000   0.000     0
X CC CT X 9 0.0 0.00000 0    X   sCC   sCT     X     9    0.00000   0.000     0
X CM CT X 9 0.0 0.00000 0    X   sCM   sCT     X     9    0.00000   0.000     0
X CT N X 9 0.0 0.00000 0    X   sCT    sN     X     9    0.00000   0.000     0
X CT N* X 9 0.0 0.00000 0    X   sCT   sN*     X     9    0.00000   0.000     0
X CT N2 X 9 0.0 0.00000 0    X   sCT   sN2     X     9    0.00000   0.000     0
X C* CT X 9 0.0 0.00000 0    X   sC*   sCT     X     9    0.00000   0.000     0
X C7 N X 9 0.0 0.00000 0    X   sC7    sN     X     9    0.00000   0.000     0
X C C7 X 9 0.0 0.00000 0    X    sC   sC7     X     9    0.00000   0.000     0
X C5 CT X 9 0.0 0.00000 0    X   sC5   sCT     X     9    0.00000   0.000     0
X C6 CT X 9 0.0 0.00000 0    X   sC6   sCT     X     9    0.00000   0.000     0
C C1 N O 4 180.0 4.60240 2   sC   sC1    sN    sO     4    4.60240   2.761     2
C C1 N OB 4 180.0 4.60240 2   sC   sC1    sN   sOB     4    4.60240   2.761     2
C C1 N H 4 180.0 4.60240 2   sC   sC1    sN    sH     4    4.60240   2.761     2
C C1 N HB 4 180.0 4.60240 2   sC   sC1    sN   sHB     4    4.60240   2.761     2
C9 O C OH 4 180.0 43.93200 2  sC9    sO    sC   sOH     4    43.93200  26.359    2
CB CK N* CT 4 180.0 4.18400 2  sCB   sCK   sN*   sCT     4    4.18400   2.510     2
C CM N* CT 4 180.0 4.18400 2   sC   sCM   sN*   sCT     4    4.18400   2.510     2
CT O C OH 4 180.0 43.93200 2  sCT    sO    sC   sOH     4    43.93200  26.359    2
CT CV CC NA 4 180.0 4.60240 2  sCT   sCV   sCC   sNA     4    4.60240   2.761     2
CT CW CC NB 4 180.0 4.60240 2  sCT   sCW   sCC   sNB     4    4.60240   2.761     2
CT CC CW NB 4 180.0 4.60240 2  sCT   sCC   sCW   sNB     4    4.60240   2.761     2
CT CW CC NA 4 180.0 4.60240 2  sCT   sCW   sCC   sNA     4    4.60240   2.761     2
CB CT C* CW 4 180.0 4.60240 2  sCB   sCT   sC*   sCW     4    4.60240   2.761     2
CA CA CA CT 4 180.0 4.60240 2  sCA   sCA   sCA   sCT     4    4.60240   2.761     2
C CM CM CT 4 180.0 4.60240 2   sC   sCM   sCM   sCT     4    4.60240   2.761     2
CM N2 CA NC 4 180.0 4.60240 2  sCM   sN2   sCA   sNC     4    4.60240   2.761     2
CB N2 CA NC 4 180.0 4.60240 2  sCB   sN2   sCA   sNC     4    4.60240   2.761     2
N2 NA CA NC 4 180.0 4.60240 2  sN2   sNA   sCA   sNC     4    4.60240   2.761     2
CA CA C OH 4 180.0 4.60240 2  sCA   sCA    sC   sOH     4    4.60240   2.761     2
CA CA CA OH 4 180.0 4.60240 2  sCA   sCA   sCA   sOH     4    4.60240   2.761     2
H5 O C OH 4 180.0 4.60240 2  sH5    sO    sC   sOH     4    4.60240   2.761     2
H5 O C OS 4 180.0 4.60240 2  sH5    sO    sC   sOS     4    4.60240   2.761     2
CM CT CM HA 4 180.0 4.60240 2  sCM   sCT   sCM   sHA     4    4.60240   2.761     2
Br CA CA CA 4 180.0 4.60240 2  sBr   sCA   sCA   sCA     4    4.60240   2.761     2
CM H4 C O 4 180.0 4.60240 2  sCM   sH4    sC    sO     4    4.60240   2.761     2
C CT N H 4 180.0 4.60240 2   sC   sCT    sN    sH     4    4.60240   2.761     2
C CT N HB 4 180.0 4.60240 2   sC   sCT    sN   sHB     4    4.60240   2.761     2
C CT N O 4 180.0 4.60240 2   sC   sCT    sN    sO     4    4.60240   2.761     2
C C7 N O 4 180.0 4.60240 2   sC   sC7    sN    sO     4    4.60240   2.761     2
C CT N OB 4 180.0 4.60240 2   sC   sCT    sN   sOB     4    4.60240   2.761     2
C C7 N OB 4 180.0 4.60240 2   sC   sC7    sN   sOB     4    4.60240   2.761     2
C C7 N H 4 180.0 4.60240 2   sC   sC7    sN    sH     4    4.60240   2.761     2
C C7 N HB 4 180.0 4.60240 2   sC   sC7    sN   sHB     4    4.60240   2.761     2
C5 CT N O 4 180.0 4.60240 2  sC5   sCT    sN    sO     4    4.60240   2.761     2
C5 CT N OB 4 180.0 4.60240 2  sC5   sCT    sN   sOB     4    4.60240   2.761     2
C5 CT N H 4 180.0 4.60240 2  sC5   sCT    sN    sH     4    4.60240   2.761     2
C5 CT N HB 4 180.0 4.60240 2  sC5   sCT    sN   sHB     4    4.60240   2.761     2
X CT N C1 4 180.0 4.18400 2    X   sCT    sN   sC1     4    4.18400   2.510     2
X CT N C7 4 180.0 4.18400 2    X   sCT    sN   sC7     4    4.18400   2.510     2
X O2 C6 O2 4 180.0 43.93200 2    X   sO2   sC6   sO2     4    43.93200  26.359    2
X O2 C O2 4 180.0 43.93200 2    X   sO2    sC   sO2     4    43.93200  26.359    2
X N2 CA N2 4 180.0 43.93200 2    X   sN2   sCA   sN2     4    43.93200  26.359    2
X CT N CT 4 180.0 4.18400 2    X   sCT    sN   sCT     4    4.18400   2.510     2
X X C O 4 180.0 43.93200 2    X     X    sC    sO     4    43.93200  26.359    2
X X C OB 4 180.0 43.93200 2    X     X    sC   sOB     4    43.93200  26.359    2
X X N H 4 180.0 4.18400 2    X     X    sN    sH     4    4.18400   2.510     2
X X N2 H 4 180.0 4.18400 2    X     X   sN2    sH     4    4.18400   2.510     2
X X NA H 4 180.0 4.18400 2    X     X   sNA    sH     4    4.18400   2.510     2
X X CA HA 4 180.0 4.60240 2    X     X   sCA   sHA     4    4.60240   2.761     2
X X CW H4 4 180.0 4.60240 2    X     X   sCW   sH4     4    4.60240   2.761     2
X X CR H5 4 180.0 4.60240 2    X     X   sCR   sH5     4    4.60240   2.761     2
X X CV H4 4 180.0 4.60240 2    X     X   sCV   sH4     4    4.60240   2.761     2
X X CQ H5 4 180.0 4.60240 2    X     X   sCQ   sH5     4    4.60240   2.761     2
X X CK H5 4 180.0 4.60240 2    X     X   sCK   sH5     4    4.60240   2.761     2
X X CM H4 4 180.0 4.60240 2    X     X   sCM   sH4     4    4.60240   2.761     2
X X CM HA 4 180.0 4.60240 2    X     X   sCM   sHA     4    4.60240   2.761     2
X X CA H4 4 180.0 4.60240 2    X     X   sCA   sH4     4    4.60240   2.761     2
X X CA H5 4 180.0 4.60240 2    X     X   sCA   sH5     4    4.60240   2.761     2
X X C5 O 4 180.0 43.93200 2    X     X   sC5    sO     4    43.93200  26.359    2
C8 CT C N 9 0.0 0.83680 1  sC8   sCT    sC    sN     9    0.83680   0.502     1
C8 CT C N 9 0.0 0.83680 2  sC8   sCT    sC    sN     9    0.83680   0.502     2
C8 CT C N 9 0.0 1.67360 3  sC8   sCT    sC    sN     9    1.67360   1.004     3
C8 CT N C 9 0.0 8.36800 1  sC8   sCT    sN    sC     9    8.36800   5.021     1
C8 CT N C 9 0.0 8.36800 2  sC8   sCT    sN    sC     9    8.36800   5.021     2
C8 CT N C 9 0.0 1.67360 3  sC8   sCT    sN    sC     9    1.67360   1.004     3
C CT C8 O3 9 180.0 4.18400 1   sC   sCT   sC8   sO3     9    4.18400   2.510     1
C CT C8 OH 9 180.0 3.76560 1   sC   sCT   sC8   sOH     9    3.76560   2.259     1
C CT CT C4 9 0.0 2.39074 1   sC   sCT   sCT   sC4     9    2.39074   1.434     1
C CT CT C4 9 180.0 1.49913 2   sC   sCT   sCT   sC4     9    1.49913   0.899     2
C CT CT C4 9 0.0 0.56400 3   sC   sCT   sCT   sC4     9    0.56400   0.338     3
C CT CT C5 9 0.0 0.71421 1   sC   sCT   sCT   sC5     9    0.71421   0.429     1
C CT CT C5 9 180.0 2.49241 2   sC   sCT   sCT   sC5     9    2.49241   1.495     2
C CT CT C5 9 0.0 0.49580 3   sC   sCT   sCT   sC5     9    0.49580   0.297     3
C CT CT C5 9 180.0 1.74556 4   sC   sCT   sCT   sC5     9    1.74556   1.047     4
C CT CT C5 9 0.0 0.43597 5   sC   sCT   sCT   sC5     9    0.43597   0.262     5
C CT CT C5 9 180.0 0.42142 6   sC   sCT   sCT   sC5     9    0.42142   0.253     6
C CT CT C* 9 0.0 1.21336 1   sC   sCT   sCT   sC*     9    1.21336   0.728     1
C CT CT C9 9 0.0 1.25520 1   sC   sCT   sCT   sC9     9    1.25520   0.753     1
C CT CT CA 9 0.0 2.17568 1   sC   sCT   sCT   sCA     9    2.17568   1.305     1
C CT CT CC 9 0.0 2.92880 1   sC   sCT   sCT   sCC     9    2.92880   1.757     1
C CT CT SH 9 180.0 0.66944 1   sC   sCT   sCT   sSH     9    0.66944   0.402     1
Cl CT CT Cl 9 180.0 1.88280 1  sCl   sCT   sCT   sCl     9    1.88280   1.130     1
CM CM C O 9 180.0 9.10020 2  sCM   sCM    sC    sO     9    9.10020   5.460     2
CM CM C O 9 0.0 1.25520 3  sCM   sCM    sC    sO     9    1.25520   0.753     3
C N C1 C 9 0.0 0.35267 1   sC    sN   sC1    sC     9    0.35267   0.212     1
C N C1 C 9 0.0 1.59541 2   sC    sN   sC1    sC     9    1.59541   0.957     2
C N C1 C 9 180.0 0.08381 3   sC    sN   sC1    sC     9    0.08381   0.050     3
C N C1 C 9 0.0 0.32396 4   sC    sN   sC1    sC     9    0.32396   0.194     4
C N C7 C 9 0.0 1.12968 2   sC    sN   sC7    sC     9    1.12968   0.678     2
C N C7 C 9 0.0 1.75728 3   sC    sN   sC7    sC     9    1.75728   1.054     3
C N CT C 9 180.0 0.14226 1   sC    sN   sCT    sC     9    0.14226   0.085     1
C N CT C 9 0.0 1.40164 2   sC    sN   sCT    sC     9    1.40164   0.841     2
C N CT C 9 0.0 2.27610 3   sC    sN   sCT    sC     9    2.27610   1.366     3
C N CT C 9 0.0 0.33472 4   sC    sN   sCT    sC     9    0.33472   0.201     4
CT C7 C N 9 0.0 0.83680 1  sCT   sC7    sC    sN     9    0.83680   0.502     1
CT C7 C N 9 0.0 0.83680 2  sCT   sC7    sC    sN     9    0.83680   0.502     2
CT C7 C N 9 0.0 1.67360 3  sCT   sC7    sC    sN     9    1.67360   1.004     3
CT C7 N C 9 0.0 8.36800 1  sCT   sC7    sN    sC     9    8.36800   5.021     1
CT C7 N C 9 0.0 8.36800 2  sCT   sC7    sN    sC     9    8.36800   5.021     2
CT C7 N C 9 0.0 1.67360 3  sCT   sC7    sN    sC     9    1.67360   1.004     3
CT C9 C O2 9 180.0 2.51040 2  sCT   sC9    sC   sO2     9    2.51040   1.506     2
CT C9 C O 9 180.0 2.51040 2  sCT   sC9    sC    sO     9    2.51040   1.506     2
CT C9 C OB 9 180.0 2.51040 2  sCT   sC9    sC   sOB     9    2.51040   1.506     2
CT CM CM CT 9 180.0 27.82360 2  sCT   sCM   sCM   sCT     9    27.82360  16.694    2
CT CM CM CT 9 180.0 7.94960 1  sCT   sCM   sCM   sCT     9    7.94960   4.770     1
CT CT C4 CT 9 0.0 0.62760 3  sCT   sCT   sC4   sCT     9    0.62760   0.377     3
CT CT C5 O 9 180.0 4.18400 1  sCT   sCT   sC5    sO     9    4.18400   2.510     1
CT CT C6 O2 9 180.0 0.77822 4  sCT   sCT   sC6   sO2     9    0.77822   0.467     4
CT CT C6 O2 9 180.0 1.48114 6  sCT   sCT   sC6   sO2     9    1.48114   0.889     6
CT CT C6 O2 9 180.0 3.65263 2  sCT   sCT   sC6   sO2     9    3.65263   2.192     2
CT CT C* CW 9 0.0 5.02080 1  sCT   sCT   sC*   sCW     9    5.02080   3.012     1
CT CT C N 9 0.0 0.83680 1  sCT   sCT    sC    sN     9    0.83680   0.502     1
CT CT C N 9 0.0 0.83680 2  sCT   sCT    sC    sN     9    0.83680   0.502     2
CT CT C N 9 0.0 1.67360 3  sCT   sCT    sC    sN     9    1.67360   1.004     3
CT CT CT C3 9 0.0 0.62760 3  sCT   sCT   sCT   sC3     9    0.62760   0.377     3
CT CT CT C7 9 0.0 0.75312 3  sCT   sCT   sCT   sC7     9    0.75312   0.452     3
CT CT CT C7 9 180.0 0.83680 1  sCT   sCT   sCT   sC7     9    0.83680   0.502     1
CT CT CT C7 9 180.0 1.04600 2  sCT   sCT   sCT   sC7     9    1.04600   0.628     2
CT CT CT CT 9 0.0 0.62760 3  sCT   sCT   sCT   sCT     9    0.62760   0.377     3
CT CT N C 9 0.0 1.67360 3  sCT   sCT    sN    sC     9    1.67360   1.004     3
CT CT N C 9 0.0 8.36800 1  sCT   sCT    sN    sC     9    8.36800   5.021     1
CT CT N C 9 0.0 8.36800 2  sCT   sCT    sN    sC     9    8.36800   5.021     2
CT CT OS C 9 0.0 1.60247 3  sCT   sCT   sOS    sC     9    1.60247   0.961     3
CT CT OS C 9 180.0 3.34720 1  sCT   sCT   sOS    sC     9    3.34720   2.008     1
CT CT OS CT 9 0.0 1.60247 3  sCT   sCT   sOS   sCT     9    1.60247   0.961     3
CT CT OS CT 9 180.0 0.41840 2  sCT   sCT   sOS   sCT     9    0.41840   0.251     2
CT CT SH HS 9 0.0 0.83680 3  sCT   sCT   sSH   sHS     9    0.83680   0.502     3
CT CT SH HS 9 0.0 2.09200 2  sCT   sCT   sSH   sHS     9    2.09200   1.255     2
CT OS CT N* 9 0.0 1.60247 3  sCT   sOS   sCT   sN*     9    1.60247   0.961     3
CT OS CT N* 9 0.0 2.71960 2  sCT   sOS   sCT   sN*     9    2.71960   1.632     2
CT OS CT OS 9 0.0 0.41840 3  sCT   sOS   sCT   sOS     9    0.41840   0.251     3
CT OS CT OS 9 180.0 3.55640 2  sCT   sOS   sCT   sOS     9    3.55640   2.134     2
CT OS CT OS 9 180.0 5.64840 1  sCT   sOS   sCT   sOS     9    5.64840   3.389     1
CT S S CT 9 0.0 14.64400 2  sCT    sS    sS   sCT     9    14.64400  8.786     2
CT S S CT 9 0.0 2.51040 3  sCT    sS    sS   sCT     9    2.51040   1.506     3
F CT CT F 9 180.0 5.02080 1   sF   sCT   sCT    sF     9    5.02080   3.012     1
H1 C1 C O 9 0.0 3.34720 1  sH1   sC1    sC    sO     9    3.34720   2.008     1
H1 C1 C O 9 180.0 0.33472 3  sH1   sC1    sC    sO     9    0.33472   0.201     3
H1 C7 C O 9 0.0 3.34720 1  sH1   sC7    sC    sO     9    3.34720   2.008     1
H1 C7 C O 9 180.0 0.33472 3  sH1   sC7    sC    sO     9    0.33472   0.201     3
H1 CT C O 9 0.0 3.34720 1  sH1   sCT    sC    sO     9    3.34720   2.008     1
H1 CT C O 9 180.0 0.33472 3  sH1   sCT    sC    sO     9    0.33472   0.201     3
H1 C1 C OB 9 0.0 3.34720 1  sH1   sC1    sC   sOB     9    3.34720   2.008     1
H1 C1 C OB 9 180.0 0.33472 3  sH1   sC1    sC   sOB     9    0.33472   0.201     3
H1 C7 C OB 9 0.0 3.34720 1  sH1   sC7    sC   sOB     9    3.34720   2.008     1
H1 C7 C OB 9 180.0 0.33472 3  sH1   sC7    sC   sOB     9    0.33472   0.201     3
H1 CT C OB 9 0.0 3.34720 1  sH1   sCT    sC   sOB     9    3.34720   2.008     1
H1 CT C OB 9 180.0 0.33472 3  sH1   sCT    sC   sOB     9    0.33472   0.201     3
H1 CT CT Br 9 0.0 2.30120 1  sH1   sCT   sCT   sBr     9    2.30120   1.381     1
H1 CT CT Cl 9 0.0 1.04600 1  sH1   sCT   sCT   sCl     9    1.04600   0.628     1
H1 CT CT F 9 0.0 0.79496 1  sH1   sCT   sCT    sF     9    0.79496   0.477     1
H1 CT CT OH 9 0.0 1.04600 1  sH1   sCT   sCT   sOH     9    1.04600   0.628     1
H1 CT CT OS 9 0.0 1.04600 1  sH1   sCT   sCT   sOS     9    1.04600   0.628     1
HC C3 CT CT 9 0.0 0.66944 3  sHC   sC3   sCT   sCT     9    0.66944   0.402     3
HC C4 CT CT 9 0.0 0.66944 3  sHC   sC4   sCT   sCT     9    0.66944   0.402     3
HC C4 CT HC 9 0.0 0.62760 3  sHC   sC4   sCT   sHC     9    0.62760   0.377     3
HC CT C3 HC 9 0.0 0.62760 3  sHC   sCT   sC3   sHC     9    0.62760   0.377     3
HC CT C4 CT 9 0.0 0.66944 3  sHC   sCT   sC4   sCT     9    0.66944   0.402     3
HC CT C5 O 9 0.0 3.34720 1  sHC   sCT   sC5    sO     9    3.34720   2.008     1
HC CT C5 O 9 180.0 0.33472 3  sHC   sCT   sC5    sO     9    0.33472   0.201     3
HC CT CM CM 9 0.0 4.81160 1  sHC   sCT   sCM   sCM     9    4.81160   2.887     1
HC CT CM CM 9 180.0 1.58992 3  sHC   sCT   sCM   sCM     9    1.58992   0.954     3
HC CT C O 9 0.0 3.34720 1  sHC   sCT    sC    sO     9    3.34720   2.008     1
HC CT C O 9 180.0 0.33472 3  sHC   sCT    sC    sO     9    0.33472   0.201     3
HC CT C OB 9 0.0 3.34720 1  sHC   sCT    sC   sOB     9    3.34720   2.008     1
HC CT C OB 9 180.0 0.33472 3  sHC   sCT    sC   sOB     9    0.33472   0.201     3
HC CT CT Br 9 0.0 2.30120 1  sHC   sCT   sCT   sBr     9    2.30120   1.381     1
HC CT CT C3 9 0.0 0.66944 3  sHC   sCT   sCT   sC3     9    0.66944   0.402     3
HC CT CT C4 9 0.0 0.66944 3  sHC   sCT   sCT   sC4     9    0.66944   0.402     3
HC CT CT C7 9 0.0 0.66944 3  sHC   sCT   sCT   sC7     9    0.66944   0.402     3
HC CT CT Cl 9 0.0 1.04600 1  sHC   sCT   sCT   sCl     9    1.04600   0.628     1
HC CT CT CT 9 0.0 0.66944 3  sHC   sCT   sCT   sCT     9    0.66944   0.402     3
HC CT CT F 9 0.0 0.79496 1  sHC   sCT   sCT    sF     9    0.79496   0.477     1
HC CT CT HC 9 0.0 0.62760 3  sHC   sCT   sCT   sHC     9    0.62760   0.377     3
HC CT CT OH 9 0.0 1.04600 1  sHC   sCT   sCT   sOH     9    1.04600   0.628     1
HC CT CT OS 9 0.0 1.04600 1  sHC   sCT   sCT   sOS     9    1.04600   0.628     1
H N C5 O 9 0.0 8.36800 1   sH    sN   sC5    sO     9    8.36800   5.021     1
H N C5 O 9 180.0 10.46000 2   sH    sN   sC5    sO     9    10.46000  6.276     2
H N C O 9 0.0 8.36800 1   sH    sN    sC    sO     9    8.36800   5.021     1
H N C O 9 180.0 10.46000 2   sH    sN    sC    sO     9    10.46000  6.276     2
HB N C OB 9 0.0 8.36800 1  sHB    sN    sC   sOB     9    8.36800   5.021     1
HB N C OB 9 180.0 10.46000 2  sHB    sN    sC   sOB     9    10.46000  6.276     2
HO O3 C8 CT 9 0.0 0.35982 1  sHO   sO3   sC8   sCT     9    0.35982   0.216     1
HO O3 C8 CT 9 0.0 0.41840 3  sHO   sO3   sC8   sCT     9    0.41840   0.251     3
HO O3 C8 CT 9 180.0 0.68199 2  sHO   sO3   sC8   sCT     9    0.68199   0.409     2
HO O3 C8 H1 9 0.0 0.41840 3  sHO   sO3   sC8   sH1     9    0.41840   0.251     3
HO OH C8 CT 9 0.0 0.25104 2  sHO   sOH   sC8   sCT     9    0.25104   0.151     2
HO OH C8 CT 9 0.0 0.83680 3  sHO   sOH   sC8   sCT     9    0.83680   0.502     3
HO OH C8 CT 9 0.0 3.13800 1  sHO   sOH   sC8   sCT     9    3.13800   1.883     1
HO OH C O 9 0.0 7.94960 1  sHO   sOH    sC    sO     9    7.94960   4.770     1
HO OH C O 9 180.0 9.62320 2  sHO   sOH    sC    sO     9    9.62320   5.774     2
HO OH CT CT 9 0.0 0.66944 3  sHO   sOH   sCT   sCT     9    0.66944   0.402     3
HO OH CT CT 9 0.0 1.04600 1  sHO   sOH   sCT   sCT     9    1.04600   0.628     1
N3 CT CT C3 9 0.0 0.81630 1  sN3   sCT   sCT   sC3     9    0.81630   0.490     1
N3 CT CT C3 9 180.0 3.53925 2  sN3   sCT   sCT   sC3     9    3.53925   2.124     2
N3 CT CT C6 9 180.0 11.02568 1  sN3   sCT   sCT   sC6     9    11.02568  6.615     1
N3 CT CT C6 9 180.0 4.98022 2  sN3   sCT   sCT   sC6     9    4.98022   2.988     2
N3 CT CT C6 9 180.0 0.02845 3  sN3   sCT   sCT   sC6     9    0.02845   0.017     3
N3 CT CT C6 9 0.0 1.76858 4  sN3   sCT   sCT   sC6     9    1.76858   1.061     4
N3 CT CT C6 9 0.0 0.96943 5  sN3   sCT   sCT   sC6     9    0.96943   0.582     5
N3 CT CT C6 9 180.0 0.89009 6  sN3   sCT   sCT   sC6     9    0.89009   0.534     6
N C1 C N 9 180.0 2.69445 1   sN   sC1    sC    sN     9    2.69445   1.617     1
N C1 C N 9 180.0 6.68666 2   sN   sC1    sC    sN     9    6.68666   4.012     2
N C1 C N 9 180.0 1.67111 3   sN   sC1    sC    sN     9    1.67111   1.003     3
N C1 C N 9 0.0 0.31419 4   sN   sC1    sC    sN     9    0.31419   0.189     4
N C5 CT CT 9 180.0 4.37772 1   sN   sC5   sCT   sCT     9    4.37772   2.627     1
N C5 CT CT 9 180.0 0.75730 2   sN   sC5   sCT   sCT     9    0.75730   0.454     2
N C5 CT CT 9 180.0 0.14811 3   sN   sC5   sCT   sCT     9    0.14811   0.089     3
N C5 CT CT 9 0.0 0.41966 4   sN   sC5   sCT   sCT     9    0.41966   0.252     4
N C5 CT CT 9 0.0 0.54308 5   sN   sC5   sCT   sCT     9    0.54308   0.326     5
N C5 CT CT 9 180.0 0.44373 6   sN   sC5   sCT   sCT     9    0.44373   0.266     6
N C7 C N 9 180.0 1.88280 1   sN   sC7    sC    sN     9    1.88280   1.130     1
N C7 C N 9 180.0 6.61072 2   sN   sC7    sC    sN     9    6.61072   3.966     2
N C7 C N 9 180.0 2.30120 3   sN   sC7    sC    sN     9    2.30120   1.381     3
N CT C8 CT 9 0.0 0.25104 1   sN   sCT   sC8   sCT     9    0.25104   0.151     1
N CT C8 CT 9 180.0 2.09200 2   sN   sCT   sC8   sCT     9    2.09200   1.255     2
N CT C8 CT 9 0.0 0.62760 3   sN   sCT   sC8   sCT     9    0.62760   0.377     3
N CT C8 CT 9 180.0 0.27196 4   sN   sCT   sC8   sCT     9    0.27196   0.163     4
N CT C8 O3 9 180.0 0.33472 1   sN   sCT   sC8   sO3     9    0.33472   0.201     1
N CT C8 OH 9 180.0 1.04600 1   sN   sCT   sC8   sOH     9    1.04600   0.628     1
N CT C N 9 360.0 0.82425 1   sN   sCT    sC    sN     9    0.82425   0.495     1
N CT C N 9 180.0 6.04588 2   sN   sCT    sC    sN     9    6.04588   3.628     2
N CT C N 9 180.0 2.00414 3   sN   sCT    sC    sN     9    2.00414   1.202     3
N CT C N 9 360.0 0.07991 4   sN   sCT    sC    sN     9    0.07991   0.048     4
N CT C N 9 360.0 0.01674 5   sN   sCT    sC    sN     9    0.01674   0.010     5
N CT CT C3 9 0.0 0.81630 1   sN   sCT   sCT   sC3     9    0.81630   0.490     1
N CT CT C3 9 180.0 3.53925 2   sN   sCT   sCT   sC3     9    3.53925   2.124     2
N CT CT C5 9 180.0 2.63592 1   sN   sCT   sCT   sC5     9    2.63592   1.582     1
N CT CT C6 9 180.0 12.05410 1   sN   sCT   sCT   sC6     9    12.05410  7.232     1
N CT CT C6 9 180.0 5.06682 2   sN   sCT   sCT   sC6     9    5.06682   3.040     2
N CT CT C6 9 0.0 0.25941 3   sN   sCT   sCT   sC6     9    0.25941   0.156     3
N CT CT C6 9 0.0 1.02508 4   sN   sCT   sCT   sC6     9    1.02508   0.615     4
N CT CT C6 9 0.0 0.54810 5   sN   sCT   sCT   sC6     9    0.54810   0.329     5
N CT CT C6 9 180.0 0.59413 6   sN   sCT   sCT   sC6     9    0.59413   0.356     6
N CT CT C9 9 0.0 0.41840 1   sN   sCT   sCT   sC9     9    0.41840   0.251     1
N CT CT CC 9 180.0 1.67360 1   sN   sCT   sCT   sCC     9    1.67360   1.004     1
N CT CT SH 9 180.0 2.30120 1   sN   sCT   sCT   sSH     9    2.30120   1.381     1
N CT CT SH 9 180.0 2.63592 2   sN   sCT   sCT   sSH     9    2.63592   1.582     2
N CT CT SH 9 180.0 0.25104 3   sN   sCT   sCT   sSH     9    0.25104   0.151     3
N CT CT SH 9 180.0 0.12552 4   sN   sCT   sCT   sSH     9    0.12552   0.075     4
O C OS CT 9 180.0 5.85760 1   sO    sC   sOS   sCT     9    5.85760   3.515     1
O C OS CT 9 180.0 11.29680 2   sO    sC   sOS   sCT     9    11.29680  6.778     2
OH CT CT OH 9 0.0 0.60250 3  sOH   sCT   sCT   sOH     9    0.60250   0.361     3
OH CT CT OH 9 0.0 4.91620 2  sOH   sCT   sCT   sOH     9    4.91620   2.950     2
OH P OS CT 9 0.0 1.04600 3  sOH    sP   sOS   sCT     9    1.04600   0.628     3
OH P OS CT 9 0.0 5.02080 2  sOH    sP   sOS   sCT     9    5.02080   3.012     2
OS CT CT OH 9 0.0 0.60250 3  sOS   sCT   sCT   sOH     9    0.60250   0.361     3
OS CT CT OH 9 0.0 4.91620 2  sOS   sCT   sCT   sOH     9    4.91620   2.950     2
OS CT CT OS 9 0.0 4.91620 2  sOS   sCT   sCT   sOS     9    4.91620   2.950     2
OS CT CT OS 9 0.0 0.60250 3  sOS   sCT   sCT   sOS     9    0.60250   0.361     3
OS CT N* CK 9 0.0 10.46000 1  sOS   sCT   sN*   sCK     9    10.46000  6.276     1
OS CT N* CM 9 0.0 10.46000 1  sOS   sCT   sN*   sCM     9    10.46000  6.276     1
OS P OS CT 9 0.0 5.02080 2  sOS    sP   sOS   sCT     9    5.02080   3.012     2
OS P OS CT 9 0.0 1.04600 3  sOS    sP   sOS   sCT     9    1.04600   0.628     3
N CT CT CA 9 0.0 0.00000 0   sN   sCT   sCT   sCA     9    0.00000   0.000     0
N CT CT C* 9 0.0 0.00000 0   sN   sCT   sCT   sC*     9    0.00000   0.000     0
CT CT C9 S 9 0.0 0.00000 0  sCT   sCT   sC9    sS     9    0.00000   0.000     0
CT CT C9 CT 9 0.0 0.00000 0  sCT   sCT   sC9   sCT     9    0.00000   0.000     0
X C1 N3 X 9 0.0 0.65084 3    X   sC1   sN3     X     9    0.65084   0.391     3
X C5 N X 9 180.0 10.46000 2    X   sC5    sN     X     9    10.46000  6.276     2
X C7 CT X 9 0.0 0.65084 3    X   sC7   sCT     X     9    0.65084   0.391     3
X C7 N3 X 9 0.0 0.65084 3    X   sC7   sN3     X     9    0.65084   0.391     3
X C8 O3 X 9 0.0 0.69873 3    X   sC8   sO3     X     9    0.69873   0.419     3
X C8 OH X 9 0.0 0.69873 3    X   sC8   sOH     X     9    0.69873   0.419     3
X C9 S X 9 0.0 1.39327 3    X   sC9    sS     X     9    1.39327   0.836     3
X CA CA X 9 180.0 15.16700 2    X   sCA   sCA     X     9    15.16700  9.100     2
X CA CB X 9 180.0 14.64400 2    X   sCA   sCB     X     9    14.64400  8.786     2
X CA CM X 9 180.0 10.66920 2    X   sCA   sCM     X     9    10.66920  6.402     2
X CA CN X 9 180.0 15.16700 2    X   sCA   sCN     X     9    15.16700  9.100     2
X CA N2 X 9 180.0 10.04160 2    X   sCA   sN2     X     9    10.04160  6.025     2
X CA NA X 9 180.0 6.27600 2    X   sCA   sNA     X     9    6.27600   3.766     2
X CA NC X 9 180.0 20.08320 2    X   sCA   sNC     X     9    20.08320  12.050    2
X CA OH X 9 180.0 3.76560 2    X   sCA   sOH     X     9    3.76560   2.259     2
X CB CB X 9 180.0 22.80280 2    X   sCB   sCB     X     9    22.80280  13.682    2
X CB CN X 9 180.0 12.55200 2    X   sCB   sCN     X     9    12.55200  7.531     2
X CB NB X 9 180.0 10.66920 2    X   sCB   sNB     X     9    10.66920  6.402     2
X CB NC X 9 180.0 17.36360 2    X   sCB   sNC     X     9    17.36360  10.418    2
X CB N* X 9 180.0 6.90360 2    X   sCB   sN*     X     9    6.90360   4.142     2
X C CA X 9 180.0 15.16700 2    X    sC   sCA     X     9    15.16700  9.100     2
X C CB X 9 180.0 12.55200 2    X    sC   sCB     X     9    12.55200  7.531     2
X C* CB X 9 180.0 7.00820 2    X   sC*   sCB     X     9    7.00820   4.205     2
X CC CV X 9 180.0 21.54760 2    X   sCC   sCV     X     9    21.54760  12.929    2
X CC CW X 9 180.0 22.48900 2    X   sCC   sCW     X     9    22.48900  13.493    2
X C CM X 9 180.0 9.10020 2    X    sC   sCM     X     9    9.10020   5.460     2
X CC NA X 9 180.0 5.85760 2    X   sCC   sNA     X     9    5.85760   3.515     2
X CC NB X 9 180.0 10.04160 2    X   sCC   sNB     X     9    10.04160  6.025     2
X C* CW X 9 180.0 27.30060 2    X   sC*   sCW     X     9    27.30060  16.380    2
X C C X 9 180.0 15.16700 2    X    sC    sC     X     9    15.16700  9.100     2
X CK NB X 9 180.0 41.84000 2    X   sCK   sNB     X     9    41.84000  25.104    2
X CK N* X 9 180.0 7.11280 2    X   sCK   sN*     X     9    7.11280   4.268     2
X CM CM X 9 180.0 27.82360 2    X   sCM   sCM     X     9    27.82360  16.694    2
X CM N* X 9 180.0 7.74040 2    X   sCM   sN*     X     9    7.74040   4.644     2
X CM OS X 9 180.0 4.39320 2    X   sCM   sOS     X     9    4.39320   2.636     2
X C NA X 9 180.0 5.64840 2    X    sC   sNA     X     9    5.64840   3.389     2
X C NC X 9 180.0 16.73600 2    X    sC   sNC     X     9    16.73600  10.042    2
X CN NA X 9 180.0 6.38060 2    X   sCN   sNA     X     9    6.38060   3.828     2
X C N X 9 180.0 10.46000 2    X    sC    sN     X     9    10.46000  6.276     2
X C N* X 9 180.0 6.06680 2    X    sC   sN*     X     9    6.06680   3.640     2
X C OH X 9 180.0 9.62320 2    X    sC   sOH     X     9    9.62320   5.774     2
X C OS X 9 180.0 11.29680 2    X    sC   sOS     X     9    11.29680  6.778     2
X C O X 9 180.0 11.71520 2    X    sC    sO     X     9    11.71520  7.029     2
X C OB X 9 180.0 11.71520 2    X    sC   sOB     X     9    11.71520  7.029     2
X CQ NC X 9 180.0 28.45120 2    X   sCQ   sNC     X     9    28.45120  17.071    2
X CR NA X 9 180.0 9.72780 2    X   sCR   sNA     X     9    9.72780   5.837     2
X CR NB X 9 180.0 20.92000 2    X   sCR   sNB     X     9    20.92000  12.552    2
X CT C8 X 9 0.0 0.64852 3    X   sCT   sC8     X     9    0.64852   0.389     3
X CT C9 X 9 0.0 0.64852 3    X   sCT   sC9     X     9    0.64852   0.389     3
X CT CT X 9 0.0 0.65084 3    X   sCT   sCT     X     9    0.65084   0.391     3
X CT N3 X 9 0.0 0.65084 3    X   sCT   sN3     X     9    0.65084   0.391     3
X CT OH X 9 0.0 0.69733 3    X   sCT   sOH     X     9    0.69733   0.418     3
X CT OS X 9 0.0 1.60387 3    X   sCT   sOS     X     9    1.60387   0.962     3
X CT SH X 9 0.0 1.04600 3    X   sCT   sSH     X     9    1.04600   0.628     3
X CT S X 9 0.0 1.39467 3    X   sCT    sS     X     9    1.39467   0.837     3
X CV NB X 9 180.0 10.04160 2    X   sCV   sNB     X     9    10.04160  6.025     2
X CW NA X 9 180.0 6.27600 2    X   sCW   sNA     X     9    6.27600   3.766     2
X OH P X 9 0.0 1.04600 3    X   sOH    sP     X     9    1.04600   0.628     3
X OS P X 9 0.0 1.04600 3    X   sOS    sP     X     9    1.04600   0.628     3
X C1 N X 9 0.0 0.00000 0    X   sC1    sN     X     9    0.00000   0.000     0
X C C1 X 9 0.0 0.00000 0    X    sC   sC1     X     9    0.00000   0.000     0
X C C9 X 9 0.0 0.00000 0    X    sC   sC9     X     9    0.00000   0.000     0
X C CT X 9 0.0 0.00000 0    X    sC   sCT     X     9    0.00000   0.000     0
X CA CT X 9 0.0 0.00000 0    X   sCA   sCT     X     9    0.00000   0.000     0
X CC CT X 9 0.0 0.00000 0    X   sCC   sCT     X     9    0.00000   0.000     0
X CM CT X 9 0.0 0.00000 0    X   sCM   sCT     X     9    0.00000   0.000     0
X CT N X 9 0.0 0.00000 0    X   sCT    sN     X     9    0.00000   0.000     0
X CT N* X 9 0.0 0.00000 0    X   sCT   sN*     X     9    0.00000   0.000     0
X CT N2 X 9 0.0 0.00000 0    X   sCT   sN2     X     9    0.00000   0.000     0
X C* CT X 9 0.0 0.00000 0    X   sC*   sCT     X     9    0.00000   0.000     0
X C7 N X 9 0.0 0.00000 0    X   sC7    sN     X     9    0.00000   0.000     0
X C C7 X 9 0.0 0.00000 0    X    sC   sC7     X     9    0.00000   0.000     0
X C5 CT X 9 0.0 0.00000 0    X   sC5   sCT     X     9    0.00000   0.000     0
X C6 CT X 9 0.0 0.00000 0    X   sC6   sCT     X     9    0.00000   0.000     0

[ moleculetype ]
; Name            nrexcl
Protein_chain_A     3

[ atoms ]
     1        sN3    121   NASP      N      1     0.0606      14.01
     2         sH    121   NASP     H1      2     0.1704       1.01
     3         sH    121   NASP     H2      3     0.1704       1.01
     4         sH    121   NASP     H3      4     0.1704       1.01
     5        sCT    121   NASP     CA      5     0.0226      12.01
     6        sHP    121   NASP     HA      6     0.0884       1.01
     7        sCT    121   NASP     CB      7    -0.0182      12.01
     8        sHC    121   NASP    HB1      8    -0.0131       1.01
     9        sHC    121   NASP    HB2      9    -0.0131       1.01
    10        sC6    121   NASP     CG     10     0.6347      12.01
    11        sO2    121   NASP    OD1     11    -0.6262      16.00
    12        sO2    121   NASP    OD2     12    -0.6262      16.00
    13         sC    121   NASP      C     13     0.4354      12.01
    14        sOB    121   NASP      O     14    -0.4562      16.00
    15         sN    122    ASN      N     15    -0.3220      14.01
    16        sHB    122    ASN      H     16     0.2106       1.01
    17        sCT    122    ASN     CA     17     0.0111      12.01
    18        sH1    122    ASN     HA     18     0.0812       1.01
    19        sCT    122    ASN     CB     19    -0.1581      12.01
    20        sHC    122    ASN    HB1     20     0.0617       1.01
    21        sHC    122    ASN    HB2     21     0.0617       1.01
    22        sC5    122    ASN     CG     22     0.5523      12.01
    23         sO    122    ASN    OD1     23    -0.4594      16.00
    24         sN    122    ASN    ND2     24    -0.7119      14.01
    25         sH    122    ASN   HD21     25     0.3250       1.01
    26         sH    122    ASN   HD22     26     0.3250       1.01
    27         sC    122    ASN      C     27     0.4627      12.01
    28        sOB    122    ASN      O     28    -0.4399      16.00
    29         sN    123    GLU      N     29    -0.3220      14.01
    30        sHB    123    GLU      H     30     0.2106       1.01
    31        sCT    123    GLU     CA     31    -0.1763      12.01
    32        sH1    123    GLU     HA     32     0.1197       1.01
    33        sCT    123    GLU     CB     33     0.0899      12.01
    34        sHC    123    GLU    HB1     34    -0.0048       1.01
    35        sHC    123    GLU    HB2     35    -0.0048       1.01
    36        sC9    123    GLU     CG     36    -0.0634      12.01
    37        sHC    123    GLU    HG1     37    -0.0048       1.01
    38        sHC    123    GLU    HG2     38    -0.0048       1.01
    39         sC    123    GLU     CD     39     0.5644      12.01
    40        sO2    123    GLU    OE1     40    -0.6006      16.00
    41        sO2    123    GLU    OE2     41    -0.6006      16.00
    42         sC    123    GLU      C     42     0.4627      12.01
    43        sOB    123    GLU      O     43    -0.4399      16.00
    44         sN    124    ALA      N     44    -0.3220      14.01
    45        sHB    124    ALA      H     45     0.2106       1.01
    46        sCT    124    ALA     CA     46     0.0261      12.01
    47        sH1    124    ALA     HA     47     0.0637       1.01
    48        sCT    124    ALA     CB     48    -0.1414      12.01
    49        sHC    124    ALA    HB1     49     0.0467       1.01
    50        sHC    124    ALA    HB2     50     0.0467       1.01
    51        sHC    124    ALA    HB3     51     0.0467       1.01
    52         sC    124    ALA      C     52     0.4627      12.01
    53        sOB    124    ALA      O     53    -0.4399      16.00
    54         sN    125    TYR      N     54    -0.3220      14.01
    55        sHB    125    TYR      H     55     0.2106       1.01
    56        sCT    125    TYR     CA     56    -0.0011      12.01
    57        sH1    125    TYR     HA     57     0.0679       1.01
    58        sCT    125    TYR     CB     58    -0.0118      12.01
    59        sHC    125    TYR    HB1     59     0.0229       1.01
    60        sHC    125    TYR    HB2     60     0.0229       1.01
    61        sCA    125    TYR     CG     61    -0.0009      12.01
    62        sCA    125    TYR    CD1     62    -0.1476      12.01
    63        sHA    125    TYR    HD1     63     0.1316       1.01
    64        sCA    125    TYR    CE1     64    -0.1813      12.01
    65        sHA    125    TYR    HE1     65     0.1283       1.01
    66         sC    125    TYR     CZ     66     0.2499      12.01
    67        sOH    125    TYR     OH     67    -0.4321      16.00
    68        sHO    125    TYR     HH     68     0.3092       1.01
    69        sCA    125    TYR    CE2     69    -0.1813      12.01
    70        sHA    125    TYR    HE2     70     0.1283       1.01
    71        sCA    125    TYR    CD2     71    -0.1476      12.01
    72        sHA    125    TYR    HD2     72     0.1316       1.01
    73         sC    125    TYR      C     73     0.4627      12.01
    74        sOB    125    TYR      O     74    -0.4399      16.00
    75         sN    126    GLU      N     75    -0.3220      14.01
    76        sHB    126    GLU      H     76     0.2106       1.01
    77        sCT    126    GLU     CA     77    -0.1763      12.01
    78        sH1    126    GLU     HA     78     0.1197       1.01
    79        sCT    126    GLU     CB     79     0.0899      12.01
    80        sHC    126    GLU    HB1     80    -0.0048       1.01
    81        sHC    126    GLU    HB2     81    -0.0048       1.01
    82        sC9    126    GLU     CG     82    -0.0634      12.01
    83        sHC    126    GLU    HG1     83    -0.0048       1.01
    84        sHC    126    GLU    HG2     84    -0.0048       1.01
    85         sC    126    GLU     CD     85     0.5644      12.01
    86        sO2    126    GLU    OE1     86    -0.6006      16.00
    87        sO2    126    GLU    OE2     87    -0.6006      16.00
    88         sC    126    GLU      C     88     0.4627      12.01
    89        sOB    126    GLU      O     89    -0.4399      16.00
    90         sN    127    MET      N     90    -0.3220      14.01
    91        sHB    127    MET      H     91     0.2106       1.01
    92        sCT    127    MET     CA     92    -0.0184      12.01
    93        sH1    127    MET     HA     93     0.0682       1.01
    94        sCT    127    MET     CB     94     0.0265      12.01
    95        sHC    127    MET    HB1     95     0.0187       1.01
    96        sHC    127    MET    HB2     96     0.0187       1.01
    97        sC9    127    MET     CG     97     0.0014      12.01
    98        sH1    127    MET    HG1     98     0.0341       1.01
    99        sH1    127    MET    HG2     99     0.0341       1.01
   100         sS    127    MET     SD    100    -0.2120      32.06
   101        sCT    127    MET     CE    101    -0.0415      12.01
   102        sH1    127    MET    HE1    102     0.0530       1.01
   103        sH1    127    MET    HE2    103     0.0530       1.01
   104        sH1    127    MET    HE3    104     0.0530       1.01
   105         sC    127    MET      C    105     0.4627      12.01
   106        sOB    127    MET      O    106    -0.4399      16.00
   107         sN    128    PRO      N    107    -0.1974      14.01
   108        sCT    128    PRO     CD    108     0.0149      12.01
   109        sH1    128    PRO    HD1    109     0.0303       1.01
   110        sH1    128    PRO    HD2    110     0.0303       1.01
   111        sCT    128    PRO     CG    111     0.0146      12.01
   112        sHC    128    PRO    HG1    112     0.0165       1.01
   113        sHC    128    PRO    HG2    113     0.0165       1.01
   114        sCT    128    PRO     CB    114    -0.0054      12.01
   115        sHC    128    PRO    HB1    115     0.0196       1.01
   116        sHC    128    PRO    HB2    116     0.0196       1.01
   117        sC7    128    PRO     CA    117    -0.0206      12.01
   118        sH1    128    PRO     HA    118     0.0497       1.01
   119         sC    128    PRO      C    119     0.4567      12.01
   120        sOB    128    PRO      O    120    -0.4452      16.00
   121         sN    129    SER      N    121    -0.3220      14.01
   122        sHB    129    SER      H    122     0.2106       1.01
   123        sCT    129    SER     CA    123    -0.0193      12.01
   124        sH1    129    SER     HA    124     0.0653       1.01
   125        sC8    129    SER     CB    125     0.1640      12.01
   126        sH1    129    SER    HB1    126     0.0273       1.01
   127        sH1    129    SER    HB2    127     0.0273       1.01
   128        sOH    129    SER     OG    128    -0.5071      16.00
   129        sHO    129    SER    HG1    129     0.3311       1.01
   130         sC    129    SER      C    130     0.4627      12.01
   131        sOB    129    SER      O    131    -0.4399      16.00
   132         sN    130    GLU      N    132    -0.3220      14.01
   133        sHB    130    GLU      H    133     0.2106       1.01
   134        sCT    130    GLU     CA    134    -0.1763      12.01
   135        sH1    130    GLU     HA    135     0.1197       1.01
   136        sCT    130    GLU     CB    136     0.0899      12.01
   137        sHC    130    GLU    HB1    137    -0.0048       1.01
   138        sHC    130    GLU    HB2    138    -0.0048       1.01
   139        sC9    130    GLU     CG    139    -0.0634      12.01
   140        sHC    130    GLU    HG1    140    -0.0048       1.01
   141        sHC    130    GLU    HG2    141    -0.0048       1.01
   142         sC    130    GLU     CD    142     0.5644      12.01
   143        sO2    130    GLU    OE1    143    -0.6006      16.00
   144        sO2    130    GLU    OE2    144    -0.6006      16.00
   145         sC    130    GLU      C    145     0.4627      12.01
   146        sOB    130    GLU      O    146    -0.4399      16.00
   147         sN    131    GLU      N    147    -0.3220      14.01
   148        sHB    131    GLU      H    148     0.2106       1.01
   149        sCT    131    GLU     CA    149    -0.1763      12.01
   150        sH1    131    GLU     HA    150     0.1197       1.01
   151        sCT    131    GLU     CB    151     0.0899      12.01
   152        sHC    131    GLU    HB1    152    -0.0048       1.01
   153        sHC    131    GLU    HB2    153    -0.0048       1.01
   154        sC9    131    GLU     CG    154    -0.0634      12.01
   155        sHC    131    GLU    HG1    155    -0.0048       1.01
   156        sHC    131    GLU    HG2    156    -0.0048       1.01
   157         sC    131    GLU     CD    157     0.5644      12.01
   158        sO2    131    GLU    OE1    158    -0.6006      16.00
   159        sO2    131    GLU    OE2    159    -0.6006      16.00
   160         sC    131    GLU      C    160     0.4627      12.01
   161        sOB    131    GLU      O    161    -0.4399      16.00
   162         sN    132    GLY      N    162    -0.3220      14.01
   163        sHB    132    GLY      H    163     0.2106       1.01
   164        sC1    132    GLY     CA    164    -0.0195      12.01
   165        sH1    132    GLY    HA1    165     0.0541       1.01
   166        sH1    132    GLY    HA2    166     0.0541       1.01
   167         sC    132    GLY      C    167     0.4627      12.01
   168        sOB    132    GLY      O    168    -0.4399      16.00
   169         sN    133    TYR      N    169    -0.3220      14.01
   170        sHB    133    TYR      H    170     0.2106       1.01
   171        sCT    133    TYR     CA    171    -0.0011      12.01
   172        sH1    133    TYR     HA    172     0.0679       1.01
   173        sCT    133    TYR     CB    173    -0.0118      12.01
   174        sHC    133    TYR    HB1    174     0.0229       1.01
   175        sHC    133    TYR    HB2    175     0.0229       1.01
   176        sCA    133    TYR     CG    176    -0.0009      12.01
   177        sCA    133    TYR    CD1    177    -0.1476      12.01
   178        sHA    133    TYR    HD1    178     0.1316       1.01
   179        sCA    133    TYR    CE1    179    -0.1813      12.01
   180        sHA    133    TYR    HE1    180     0.1283       1.01
   181         sC    133    TYR     CZ    181     0.2499      12.01
   182        sOH    133    TYR     OH    182    -0.4321      16.00
   183        sHO    133    TYR     HH    183     0.3092       1.01
   184        sCA    133    TYR    CE2    184    -0.1813      12.01
   185        sHA    133    TYR    HE2    185     0.1283       1.01
   186        sCA    133    TYR    CD2    186    -0.1476      12.01
   187        sHA    133    TYR    HD2    187     0.1316       1.01
   188         sC    133    TYR      C    188     0.4627      12.01
   189        sOB    133    TYR      O    189    -0.4399      16.00
   190         sN    134    GLN      N    190    -0.3220      14.01
   191        sHB    134    GLN      H    191     0.2106       1.01
   192        sCT    134    GLN     CA    192    -0.0024      12.01
   193        sH1    134    GLN     HA    193     0.0658       1.01
   194        sCT    134    GLN     CB    194    -0.0028      12.01
   195        sHC    134    GLN    HB1    195     0.0132       1.01
   196        sHC    134    GLN    HB2    196     0.0132       1.01
   197        sC9    134    GLN     CG    197    -0.0500      12.01
   198        sHC    134    GLN    HG1    198     0.0273       1.01
   199        sHC    134    GLN    HG2    199     0.0273       1.01
   200         sC    134    GLN     CD    200     0.5384      12.01
   201         sO    134    GLN    OE1    201    -0.4714      16.00
   202         sN    134    GLN    NE2    202    -0.7287      14.01
   203         sH    134    GLN   HE21    203     0.3293       1.01
   204         sH    134    GLN   HE22    204     0.3293       1.01
   205         sC    134    GLN      C    205     0.4627      12.01
   206        sOB    134    GLN      O    206    -0.4399      16.00
   207         sN    135    ASP      N    207    -0.3220      14.01
   208        sHB    135    ASP      H    208     0.2106       1.01
   209        sCT    135    ASP     CA    209    -0.1739      12.01
   210        sH1    135    ASP     HA    210     0.1132       1.01
   211        sCT    135    ASP     CB    211     0.0028      12.01
   212        sHC    135    ASP    HB1    212    -0.0121       1.01
   213        sHC    135    ASP    HB2    213    -0.0121       1.01
   214        sC6    135    ASP     CG    214     0.5909      12.01
   215        sO2    135    ASP    OD1    215    -0.5974      16.00
   216        sO2    135    ASP    OD2    216    -0.5974      16.00
   217         sC    135    ASP      C    217     0.4627      12.01
   218        sOB    135    ASP      O    218    -0.4399      16.00
   219         sN    136    TYR      N    219    -0.3220      14.01
   220        sHB    136    TYR      H    220     0.2106       1.01
   221        sCT    136    TYR     CA    221    -0.0011      12.01
   222        sH1    136    TYR     HA    222     0.0679       1.01
   223        sCT    136    TYR     CB    223    -0.0118      12.01
   224        sHC    136    TYR    HB1    224     0.0229       1.01
   225        sHC    136    TYR    HB2    225     0.0229       1.01
   226        sCA    136    TYR     CG    226    -0.0009      12.01
   227        sCA    136    TYR    CD1    227    -0.1476      12.01
   228        sHA    136    TYR    HD1    228     0.1316       1.01
   229        sCA    136    TYR    CE1    229    -0.1813      12.01
   230        sHA    136    TYR    HE1    230     0.1283       1.01
   231         sC    136    TYR     CZ    231     0.2499      12.01
   232        sOH    136    TYR     OH    232    -0.4321      16.00
   233        sHO    136    TYR     HH    233     0.3092       1.01
   234        sCA    136    TYR    CE2    234    -0.1813      12.01
   235        sHA    136    TYR    HE2    235     0.1283       1.01
   236        sCA    136    TYR    CD2    236    -0.1476      12.01
   237        sHA    136    TYR    HD2    237     0.1316       1.01
   238         sC    136    TYR      C    238     0.4627      12.01
   239        sOB    136    TYR      O    239    -0.4399      16.00
   240         sN    137    GLU      N    240    -0.3220      14.01
   241        sHB    137    GLU      H    241     0.2106       1.01
   242        sCT    137    GLU     CA    242    -0.1763      12.01
   243        sH1    137    GLU     HA    243     0.1197       1.01
   244        sCT    137    GLU     CB    244     0.0899      12.01
   245        sHC    137    GLU    HB1    245    -0.0048       1.01
   246        sHC    137    GLU    HB2    246    -0.0048       1.01
   247        sC9    137    GLU     CG    247    -0.0634      12.01
   248        sHC    137    GLU    HG1    248    -0.0048       1.01
   249        sHC    137    GLU    HG2    249    -0.0048       1.01
   250         sC    137    GLU     CD    250     0.5644      12.01
   251        sO2    137    GLU    OE1    251    -0.6006      16.00
   252        sO2    137    GLU    OE2    252    -0.6006      16.00
   253         sC    137    GLU      C    253     0.4627      12.01
   254        sOB    137    GLU      O    254    -0.4399      16.00
   255         sN    138    PRO      N    255    -0.1974      14.01
   256        sCT    138    PRO     CD    256     0.0149      12.01
   257        sH1    138    PRO    HD1    257     0.0303       1.01
   258        sH1    138    PRO    HD2    258     0.0303       1.01
   259        sCT    138    PRO     CG    259     0.0146      12.01
   260        sHC    138    PRO    HG1    260     0.0165       1.01
   261        sHC    138    PRO    HG2    261     0.0165       1.01
   262        sCT    138    PRO     CB    262    -0.0054      12.01
   263        sHC    138    PRO    HB1    263     0.0196       1.01
   264        sHC    138    PRO    HB2    264     0.0196       1.01
   265        sC7    138    PRO     CA    265    -0.0206      12.01
   266        sH1    138    PRO     HA    266     0.0497       1.01
   267         sC    138    PRO      C    267     0.4567      12.01
   268        sOB    138    PRO      O    268    -0.4452      16.00
   269         sN    139    GLU      N    269    -0.3220      14.01
   270        sHB    139    GLU      H    270     0.2106       1.01
   271        sCT    139    GLU     CA    271    -0.1763      12.01
   272        sH1    139    GLU     HA    272     0.1197       1.01
   273        sCT    139    GLU     CB    273     0.0899      12.01
   274        sHC    139    GLU    HB1    274    -0.0048       1.01
   275        sHC    139    GLU    HB2    275    -0.0048       1.01
   276        sC9    139    GLU     CG    276    -0.0634      12.01
   277        sHC    139    GLU    HG1    277    -0.0048       1.01
   278        sHC    139    GLU    HG2    278    -0.0048       1.01
   279         sC    139    GLU     CD    279     0.5644      12.01
   280        sO2    139    GLU    OE1    280    -0.6006      16.00
   281        sO2    139    GLU    OE2    281    -0.6006      16.00
   282         sC    139    GLU      C    282     0.4627      12.01
   283        sOB    139    GLU      O    283    -0.4399      16.00
   284         sN    140   CALA      N    284    -0.2960      14.01
   285        sHB    140   CALA      H    285     0.2077       1.01
   286        sCT    140   CALA     CA    286    -0.1353      12.01
   287        sH1    140   CALA     HA    287     0.0826       1.01
   288        sCT    140   CALA     CB    288    -0.1621      12.01
   289        sHC    140   CALA    HB1    289     0.0592       1.01
   290        sHC    140   CALA    HB2    290     0.0592       1.01
   291        sHC    140   CALA    HB3    291     0.0592       1.01
   292         sC    140   CALA      C    292     0.5988      12.01
   293        sO2    140   CALA    OC1    293    -0.6239      16.00
   294        sO2    140   CALA    OC2    294    -0.6239      16.00

[ bonds ]
    1     2     1
    1     3     1
    1     4     1
    1     5     1
    5     6     1
    5     7     1
    5    13     1
    7     8     1
    7     9     1
    7    10     1
   10    11     1
   10    12     1
   13    14     1
   13    15     1
   15    16     1
   15    17     1
   17    18     1
   17    19     1
   17    27     1
   19    20     1
   19    21     1
   19    22     1
   22    23     1
   22    24     1
   24    25     1
   24    26     1
   27    28     1
   27    29     1
   29    30     1
   29    31     1
   31    32     1
   31    33     1
   31    42     1
   33    34     1
   33    35     1
   33    36     1
   36    37     1
   36    38     1
   36    39     1
   39    40     1
   39    41     1
   42    43     1
   42    44     1
   44    45     1
   44    46     1
   46    47     1
   46    48     1
   46    52     1
   48    49     1
   48    50     1
   48    51     1
   52    53     1
   52    54     1
   54    55     1
   54    56     1
   56    57     1
   56    58     1
   56    73     1
   58    59     1
   58    60     1
   58    61     1
   61    62     1
   61    71     1
   62    63     1
   62    64     1
   64    65     1
   64    66     1
   66    67     1
   66    69     1
   67    68     1
   69    70     1
   69    71     1
   71    72     1
   73    74     1
   73    75     1
   75    76     1
   75    77     1
   77    78     1
   77    79     1
   77    88     1
   79    80     1
   79    81     1
   79    82     1
   82    83     1
   82    84     1
   82    85     1
   85    86     1
   85    87     1
   88    89     1
   88    90     1
   90    91     1
   90    92     1
   92    93     1
   92    94     1
   92   105     1
   94    95     1
   94    96     1
   94    97     1
   97    98     1
   97    99     1
   97   100     1
  100   101     1
  101   102     1
  101   103     1
  101   104     1
  105   106     1
  105   107     1
  107   108     1
  107   117     1
  108   109     1
  108   110     1
  108   111     1
  111   112     1
  111   113     1
  111   114     1
  114   115     1
  114   116     1
  114   117     1
  117   118     1
  117   119     1
  119   120     1
  119   121     1
  121   122     1
  121   123     1
  123   124     1
  123   125     1
  123   130     1
  125   126     1
  125   127     1
  125   128     1
  128   129     1
  130   131     1
  130   132     1
  132   133     1
  132   134     1
  134   135     1
  134   136     1
  134   145     1
  136   137     1
  136   138     1
  136   139     1
  139   140     1
  139   141     1
  139   142     1
  142   143     1
  142   144     1
  145   146     1
  145   147     1
  147   148     1
  147   149     1
  149   150     1
  149   151     1
  149   160     1
  151   152     1
  151   153     1
  151   154     1
  154   155     1
  154   156     1
  154   157     1
  157   158     1
  157   159     1
  160   161     1
  160   162     1
  162   163     1
  162   164     1
  164   165     1
  164   166     1
  164   167     1
  167   168     1
  167   169     1
  169   170     1
  169   171     1
  171   172     1
  171   173     1
  171   188     1
  173   174     1
  173   175     1
  173   176     1
  176   177     1
  176   186     1
  177   178     1
  177   179     1
  179   180     1
  179   181     1
  181   182     1
  181   184     1
  182   183     1
  184   185     1
  184   186     1
  186   187     1
  188   189     1
  188   190     1
  190   191     1
  190   192     1
  192   193     1
  192   194     1
  192   205     1
  194   195     1
  194   196     1
  194   197     1
  197   198     1
  197   199     1
  197   200     1
  200   201     1
  200   202     1
  202   203     1
  202   204     1
  205   206     1
  205   207     1
  207   208     1
  207   209     1
  209   210     1
  209   211     1
  209   217     1
  211   212     1
  211   213     1
  211   214     1
  214   215     1
  214   216     1
  217   218     1
  217   219     1
  219   220     1
  219   221     1
  221   222     1
  221   223     1
  221   238     1
  223   224     1
  223   225     1
  223   226     1
  226   227     1
  226   236     1
  227   228     1
  227   229     1
  229   230     1
  229   231     1
  231   232     1
  231   234     1
  232   233     1
  234   235     1
  234   236     1
  236   237     1
  238   239     1
  238   240     1
  240   241     1
  240   242     1
  242   243     1
  242   244     1
  242   253     1
  244   245     1
  244   246     1
  244   247     1
  247   248     1
  247   249     1
  247   250     1
  250   251     1
  250   252     1
  253   254     1
  253   255     1
  255   256     1
  255   265     1
  256   257     1
  256   258     1
  256   259     1
  259   260     1
  259   261     1
  259   262     1
  262   263     1
  262   264     1
  262   265     1
  265   266     1
  265   267     1
  267   268     1
  267   269     1
  269   270     1
  269   271     1
  271   272     1
  271   273     1
  271   282     1
  273   274     1
  273   275     1
  273   276     1
  276   277     1
  276   278     1
  276   279     1
  279   280     1
  279   281     1
  282   283     1
  282   284     1
  284   285     1
  284   286     1
  286   287     1
  286   288     1
  286   292     1
  288   289     1
  288   290     1
  288   291     1
  292   293     1
  292   294     1


[ pairs ]
    1     8     1
    1     9     1
    1    10     1
    1    14     1
    1    15     1
    2     6     1
    2     7     1
    2    13     1
    3     6     1
    3     7     1
    3    13     1
    4     6     1
    4     7     1
    4    13     1
    5    11     1
    5    12     1
    5    16     1
    5    17     1
    6     8     1
    6     9     1
    6    10     1
    6    14     1
    6    15     1
    7    14     1
    7    15     1
    8    11     1
    8    12     1
    8    13     1
    9    11     1
    9    12     1
    9    13     1
   10    13     1
   13    18     1
   13    19     1
   13    27     1
   14    16     1
   14    17     1
   15    20     1
   15    21     1
   15    22     1
   15    28     1
   15    29     1
   16    18     1
   16    19     1
   16    27     1
   17    23     1
   17    24     1
   17    30     1
   17    31     1
   18    20     1
   18    21     1
   18    22     1
   18    28     1
   18    29     1
   19    25     1
   19    26     1
   19    28     1
   19    29     1
   20    23     1
   20    24     1
   20    27     1
   21    23     1
   21    24     1
   21    27     1
   22    27     1
   23    25     1
   23    26     1
   27    32     1
   27    33     1
   27    42     1
   28    30     1
   28    31     1
   29    34     1
   29    35     1
   29    36     1
   29    43     1
   29    44     1
   30    32     1
   30    33     1
   30    42     1
   31    37     1
   31    38     1
   31    39     1
   31    45     1
   31    46     1
   32    34     1
   32    35     1
   32    36     1
   32    43     1
   32    44     1
   33    40     1
   33    41     1
   33    43     1
   33    44     1
   34    37     1
   34    38     1
   34    39     1
   34    42     1
   35    37     1
   35    38     1
   35    39     1
   35    42     1
   36    42     1
   37    40     1
   37    41     1
   38    40     1
   38    41     1
   42    47     1
   42    48     1
   42    52     1
   43    45     1
   43    46     1
   44    49     1
   44    50     1
   44    51     1
   44    53     1
   44    54     1
   45    47     1
   45    48     1
   45    52     1
   46    55     1
   46    56     1
   47    49     1
   47    50     1
   47    51     1
   47    53     1
   47    54     1
   48    53     1
   48    54     1
   49    52     1
   50    52     1
   51    52     1
   52    57     1
   52    58     1
   52    73     1
   53    55     1
   53    56     1
   54    59     1
   54    60     1
   54    61     1
   54    74     1
   54    75     1
   55    57     1
   55    58     1
   55    73     1
   56    62     1
   56    71     1
   56    76     1
   56    77     1
   57    59     1
   57    60     1
   57    61     1
   57    74     1
   57    75     1
   58    63     1
   58    64     1
   58    69     1
   58    72     1
   58    74     1
   58    75     1
   59    62     1
   59    71     1
   59    73     1
   60    62     1
   60    71     1
   60    73     1
   61    65     1
   61    66     1
   61    70     1
   61    73     1
   62    67     1
   62    69     1
   62    72     1
   63    65     1
   63    66     1
   63    71     1
   64    68     1
   64    70     1
   64    71     1
   65    67     1
   65    69     1
   66    72     1
   67    70     1
   67    71     1
   68    69     1
   70    72     1
   73    78     1
   73    79     1
   73    88     1
   74    76     1
   74    77     1
   75    80     1
   75    81     1
   75    82     1
   75    89     1
   75    90     1
   76    78     1
   76    79     1
   76    88     1
   77    83     1
   77    84     1
   77    85     1
   77    91     1
   77    92     1
   78    80     1
   78    81     1
   78    82     1
   78    89     1
   78    90     1
   79    86     1
   79    87     1
   79    89     1
   79    90     1
   80    83     1
   80    84     1
   80    85     1
   80    88     1
   81    83     1
   81    84     1
   81    85     1
   81    88     1
   82    88     1
   83    86     1
   83    87     1
   84    86     1
   84    87     1
   88    93     1
   88    94     1
   88   105     1
   89    91     1
   89    92     1
   90    95     1
   90    96     1
   90    97     1
   90   106     1
   90   107     1
   91    93     1
   91    94     1
   91   105     1
   92    98     1
   92    99     1
   92   100     1
   92   108     1
   92   117     1
   93    95     1
   93    96     1
   93    97     1
   93   106     1
   93   107     1
   94   101     1
   94   106     1
   94   107     1
   95    98     1
   95    99     1
   95   100     1
   95   105     1
   96    98     1
   96    99     1
   96   100     1
   96   105     1
   97   102     1
   97   103     1
   97   104     1
   97   105     1
   98   101     1
   99   101     1
  105   109     1
  105   110     1
  105   111     1
  105   114     1
  105   118     1
  105   119     1
  106   108     1
  106   117     1
  107   112     1
  107   113     1
  107   115     1
  107   116     1
  107   120     1
  107   121     1
  108   115     1
  108   116     1
  108   118     1
  108   119     1
  109   112     1
  109   113     1
  109   114     1
  109   117     1
  110   112     1
  110   113     1
  110   114     1
  110   117     1
  111   118     1
  111   119     1
  112   115     1
  112   116     1
  112   117     1
  113   115     1
  113   116     1
  113   117     1
  114   120     1
  114   121     1
  115   118     1
  115   119     1
  116   118     1
  116   119     1
  117   122     1
  117   123     1
  118   120     1
  118   121     1
  119   124     1
  119   125     1
  119   130     1
  120   122     1
  120   123     1
  121   126     1
  121   127     1
  121   128     1
  121   131     1
  121   132     1
  122   124     1
  122   125     1
  122   130     1
  123   129     1
  123   133     1
  123   134     1
  124   126     1
  124   127     1
  124   128     1
  124   131     1
  124   132     1
  125   131     1
  125   132     1
  126   129     1
  126   130     1
  127   129     1
  127   130     1
  128   130     1
  130   135     1
  130   136     1
  130   145     1
  131   133     1
  131   134     1
  132   137     1
  132   138     1
  132   139     1
  132   146     1
  132   147     1
  133   135     1
  133   136     1
  133   145     1
  134   140     1
  134   141     1
  134   142     1
  134   148     1
  134   149     1
  135   137     1
  135   138     1
  135   139     1
  135   146     1
  135   147     1
  136   143     1
  136   144     1
  136   146     1
  136   147     1
  137   140     1
  137   141     1
  137   142     1
  137   145     1
  138   140     1
  138   141     1
  138   142     1
  138   145     1
  139   145     1
  140   143     1
  140   144     1
  141   143     1
  141   144     1
  145   150     1
  145   151     1
  145   160     1
  146   148     1
  146   149     1
  147   152     1
  147   153     1
  147   154     1
  147   161     1
  147   162     1
  148   150     1
  148   151     1
  148   160     1
  149   155     1
  149   156     1
  149   157     1
  149   163     1
  149   164     1
  150   152     1
  150   153     1
  150   154     1
  150   161     1
  150   162     1
  151   158     1
  151   159     1
  151   161     1
  151   162     1
  152   155     1
  152   156     1
  152   157     1
  152   160     1
  153   155     1
  153   156     1
  153   157     1
  153   160     1
  154   160     1
  155   158     1
  155   159     1
  156   158     1
  156   159     1
  160   165     1
  160   166     1
  160   167     1
  161   163     1
  161   164     1
  162   168     1
  162   169     1
  163   165     1
  163   166     1
  163   167     1
  164   170     1
  164   171     1
  165   168     1
  165   169     1
  166   168     1
  166   169     1
  167   172     1
  167   173     1
  167   188     1
  168   170     1
  168   171     1
  169   174     1
  169   175     1
  169   176     1
  169   189     1
  169   190     1
  170   172     1
  170   173     1
  170   188     1
  171   177     1
  171   186     1
  171   191     1
  171   192     1
  172   174     1
  172   175     1
  172   176     1
  172   189     1
  172   190     1
  173   178     1
  173   179     1
  173   184     1
  173   187     1
  173   189     1
  173   190     1
  174   177     1
  174   186     1
  174   188     1
  175   177     1
  175   186     1
  175   188     1
  176   180     1
  176   181     1
  176   185     1
  176   188     1
  177   182     1
  177   184     1
  177   187     1
  178   180     1
  178   181     1
  178   186     1
  179   183     1
  179   185     1
  179   186     1
  180   182     1
  180   184     1
  181   187     1
  182   185     1
  182   186     1
  183   184     1
  185   187     1
  188   193     1
  188   194     1
  188   205     1
  189   191     1
  189   192     1
  190   195     1
  190   196     1
  190   197     1
  190   206     1
  190   207     1
  191   193     1
  191   194     1
  191   205     1
  192   198     1
  192   199     1
  192   200     1
  192   208     1
  192   209     1
  193   195     1
  193   196     1
  193   197     1
  193   206     1
  193   207     1
  194   201     1
  194   202     1
  194   206     1
  194   207     1
  195   198     1
  195   199     1
  195   200     1
  195   205     1
  196   198     1
  196   199     1
  196   200     1
  196   205     1
  197   203     1
  197   204     1
  197   205     1
  198   201     1
  198   202     1
  199   201     1
  199   202     1
  201   203     1
  201   204     1
  205   210     1
  205   211     1
  205   217     1
  206   208     1
  206   209     1
  207   212     1
  207   213     1
  207   214     1
  207   218     1
  207   219     1
  208   210     1
  208   211     1
  208   217     1
  209   215     1
  209   216     1
  209   220     1
  209   221     1
  210   212     1
  210   213     1
  210   214     1
  210   218     1
  210   219     1
  211   218     1
  211   219     1
  212   215     1
  212   216     1
  212   217     1
  213   215     1
  213   216     1
  213   217     1
  214   217     1
  217   222     1
  217   223     1
  217   238     1
  218   220     1
  218   221     1
  219   224     1
  219   225     1
  219   226     1
  219   239     1
  219   240     1
  220   222     1
  220   223     1
  220   238     1
  221   227     1
  221   236     1
  221   241     1
  221   242     1
  222   224     1
  222   225     1
  222   226     1
  222   239     1
  222   240     1
  223   228     1
  223   229     1
  223   234     1
  223   237     1
  223   239     1
  223   240     1
  224   227     1
  224   236     1
  224   238     1
  225   227     1
  225   236     1
  225   238     1
  226   230     1
  226   231     1
  226   235     1
  226   238     1
  227   232     1
  227   234     1
  227   237     1
  228   230     1
  228   231     1
  228   236     1
  229   233     1
  229   235     1
  229   236     1
  230   232     1
  230   234     1
  231   237     1
  232   235     1
  232   236     1
  233   234     1
  235   237     1
  238   243     1
  238   244     1
  238   253     1
  239   241     1
  239   242     1
  240   245     1
  240   246     1
  240   247     1
  240   254     1
  240   255     1
  241   243     1
  241   244     1
  241   253     1
  242   248     1
  242   249     1
  242   250     1
  242   256     1
  242   265     1
  243   245     1
  243   246     1
  243   247     1
  243   254     1
  243   255     1
  244   251     1
  244   252     1
  244   254     1
  244   255     1
  245   248     1
  245   249     1
  245   250     1
  245   253     1
  246   248     1
  246   249     1
  246   250     1
  246   253     1
  247   253     1
  248   251     1
  248   252     1
  249   251     1
  249   252     1
  253   257     1
  253   258     1
  253   259     1
  253   262     1
  253   266     1
  253   267     1
  254   256     1
  254   265     1
  255   260     1
  255   261     1
  255   263     1
  255   264     1
  255   268     1
  255   269     1
  256   263     1
  256   264     1
  256   266     1
  256   267     1
  257   260     1
  257   261     1
  257   262     1
  257   265     1
  258   260     1
  258   261     1
  258   262     1
  258   265     1
  259   266     1
  259   267     1
  260   263     1
  260   264     1
  260   265     1
  261   263     1
  261   264     1
  261   265     1
  262   268     1
  262   269     1
  263   266     1
  263   267     1
  264   266     1
  264   267     1
  265   270     1
  265   271     1
  266   268     1
  266   269     1
  267   272     1
  267   273     1
  267   282     1
  268   270     1
  268   271     1
  269   274     1
  269   275     1
  269   276     1
  269   283     1
  269   284     1
  270   272     1
  270   273     1
  270   282     1
  271   277     1
  271   278     1
  271   279     1
  271   285     1
  271   286     1
  272   274     1
  272   275     1
  272   276     1
  272   283     1
  272   284     1
  273   280     1
  273   281     1
  273   283     1
  273   284     1
  274   277     1
  274   278     1
  274   279     1
  274   282     1
  275   277     1
  275   278     1
  275   279     1
  275   282     1
  276   282     1
  277   280     1
  277   281     1
  278   280     1
  278   281     1
  282   287     1
  282   288     1
  282   292     1
  283   285     1
  283   286     1
  284   289     1
  284   290     1
  284   291     1
  284   293     1
  284   294     1
  285   287     1
  285   288     1
  285   292     1
  287   289     1
  287   290     1
  287   291     1
  287   293     1
  287   294     1
  288   293     1
  288   294     1
  289   292     1
  290   292     1
  291   292     1


[ angles ]
    2     1     3     1
    2     1     4     1
    2     1     5     1
    3     1     4     1
    3     1     5     1
    4     1     5     1
    1     5     6     1
    1     5     7     1
    1     5    13     1
    6     5     7     1
    6     5    13     1
    7     5    13     1
    5     7     8     1
    5     7     9     1
    5     7    10     1
    8     7     9     1
    8     7    10     1
    9     7    10     1
    7    10    11     1
    7    10    12     1
   11    10    12     1
    5    13    14     1
    5    13    15     1
   14    13    15     1
   13    15    16     1
   13    15    17     1
   16    15    17     1
   15    17    18     1
   15    17    19     1
   15    17    27     1
   18    17    19     1
   18    17    27     1
   19    17    27     1
   17    19    20     1
   17    19    21     1
   17    19    22     1
   20    19    21     1
   20    19    22     1
   21    19    22     1
   19    22    23     1
   19    22    24     1
   23    22    24     1
   22    24    25     1
   22    24    26     1
   25    24    26     1
   17    27    28     1
   17    27    29     1
   28    27    29     1
   27    29    30     1
   27    29    31     1
   30    29    31     1
   29    31    32     1
   29    31    33     1
   29    31    42     1
   32    31    33     1
   32    31    42     1
   33    31    42     1
   31    33    34     1
   31    33    35     1
   31    33    36     1
   34    33    35     1
   34    33    36     1
   35    33    36     1
   33    36    37     1
   33    36    38     1
   33    36    39     1
   37    36    38     1
   37    36    39     1
   38    36    39     1
   36    39    40     1
   36    39    41     1
   40    39    41     1
   31    42    43     1
   31    42    44     1
   43    42    44     1
   42    44    45     1
   42    44    46     1
   45    44    46     1
   44    46    47     1
   44    46    48     1
   44    46    52     1
   47    46    48     1
   47    46    52     1
   48    46    52     1
   46    48    49     1
   46    48    50     1
   46    48    51     1
   49    48    50     1
   49    48    51     1
   50    48    51     1
   46    52    53     1
   46    52    54     1
   53    52    54     1
   52    54    55     1
   52    54    56     1
   55    54    56     1
   54    56    57     1
   54    56    58     1
   54    56    73     1
   57    56    58     1
   57    56    73     1
   58    56    73     1
   56    58    59     1
   56    58    60     1
   56    58    61     1
   59    58    60     1
   59    58    61     1
   60    58    61     1
   58    61    62     1
   58    61    71     1
   62    61    71     1
   61    62    63     1
   61    62    64     1
   63    62    64     1
   62    64    65     1
   62    64    66     1
   65    64    66     1
   64    66    67     1
   64    66    69     1
   67    66    69     1
   66    67    68     1
   66    69    70     1
   66    69    71     1
   70    69    71     1
   61    71    69     1
   61    71    72     1
   69    71    72     1
   56    73    74     1
   56    73    75     1
   74    73    75     1
   73    75    76     1
   73    75    77     1
   76    75    77     1
   75    77    78     1
   75    77    79     1
   75    77    88     1
   78    77    79     1
   78    77    88     1
   79    77    88     1
   77    79    80     1
   77    79    81     1
   77    79    82     1
   80    79    81     1
   80    79    82     1
   81    79    82     1
   79    82    83     1
   79    82    84     1
   79    82    85     1
   83    82    84     1
   83    82    85     1
   84    82    85     1
   82    85    86     1
   82    85    87     1
   86    85    87     1
   77    88    89     1
   77    88    90     1
   89    88    90     1
   88    90    91     1
   88    90    92     1
   91    90    92     1
   90    92    93     1
   90    92    94     1
   90    92   105     1
   93    92    94     1
   93    92   105     1
   94    92   105     1
   92    94    95     1
   92    94    96     1
   92    94    97     1
   95    94    96     1
   95    94    97     1
   96    94    97     1
   94    97    98     1
   94    97    99     1
   94    97   100     1
   98    97    99     1
   98    97   100     1
   99    97   100     1
   97   100   101     1
  100   101   102     1
  100   101   103     1
  100   101   104     1
  102   101   103     1
  102   101   104     1
  103   101   104     1
   92   105   106     1
   92   105   107     1
  106   105   107     1
  105   107   108     1
  105   107   117     1
  108   107   117     1
  107   108   109     1
  107   108   110     1
  107   108   111     1
  109   108   110     1
  109   108   111     1
  110   108   111     1
  108   111   112     1
  108   111   113     1
  108   111   114     1
  112   111   113     1
  112   111   114     1
  113   111   114     1
  111   114   115     1
  111   114   116     1
  111   114   117     1
  115   114   116     1
  115   114   117     1
  116   114   117     1
  107   117   114     1
  107   117   118     1
  107   117   119     1
  114   117   118     1
  114   117   119     1
  118   117   119     1
  117   119   120     1
  117   119   121     1
  120   119   121     1
  119   121   122     1
  119   121   123     1
  122   121   123     1
  121   123   124     1
  121   123   125     1
  121   123   130     1
  124   123   125     1
  124   123   130     1
  125   123   130     1
  123   125   126     1
  123   125   127     1
  123   125   128     1
  126   125   127     1
  126   125   128     1
  127   125   128     1
  125   128   129     1
  123   130   131     1
  123   130   132     1
  131   130   132     1
  130   132   133     1
  130   132   134     1
  133   132   134     1
  132   134   135     1
  132   134   136     1
  132   134   145     1
  135   134   136     1
  135   134   145     1
  136   134   145     1
  134   136   137     1
  134   136   138     1
  134   136   139     1
  137   136   138     1
  137   136   139     1
  138   136   139     1
  136   139   140     1
  136   139   141     1
  136   139   142     1
  140   139   141     1
  140   139   142     1
  141   139   142     1
  139   142   143     1
  139   142   144     1
  143   142   144     1
  134   145   146     1
  134   145   147     1
  146   145   147     1
  145   147   148     1
  145   147   149     1
  148   147   149     1
  147   149   150     1
  147   149   151     1
  147   149   160     1
  150   149   151     1
  150   149   160     1
  151   149   160     1
  149   151   152     1
  149   151   153     1
  149   151   154     1
  152   151   153     1
  152   151   154     1
  153   151   154     1
  151   154   155     1
  151   154   156     1
  151   154   157     1
  155   154   156     1
  155   154   157     1
  156   154   157     1
  154   157   158     1
  154   157   159     1
  158   157   159     1
  149   160   161     1
  149   160   162     1
  161   160   162     1
  160   162   163     1
  160   162   164     1
  163   162   164     1
  162   164   165     1
  162   164   166     1
  162   164   167     1
  165   164   166     1
  165   164   167     1
  166   164   167     1
  164   167   168     1
  164   167   169     1
  168   167   169     1
  167   169   170     1
  167   169   171     1
  170   169   171     1
  169   171   172     1
  169   171   173     1
  169   171   188     1
  172   171   173     1
  172   171   188     1
  173   171   188     1
  171   173   174     1
  171   173   175     1
  171   173   176     1
  174   173   175     1
  174   173   176     1
  175   173   176     1
  173   176   177     1
  173   176   186     1
  177   176   186     1
  176   177   178     1
  176   177   179     1
  178   177   179     1
  177   179   180     1
  177   179   181     1
  180   179   181     1
  179   181   182     1
  179   181   184     1
  182   181   184     1
  181   182   183     1
  181   184   185     1
  181   184   186     1
  185   184   186     1
  176   186   184     1
  176   186   187     1
  184   186   187     1
  171   188   189     1
  171   188   190     1
  189   188   190     1
  188   190   191     1
  188   190   192     1
  191   190   192     1
  190   192   193     1
  190   192   194     1
  190   192   205     1
  193   192   194     1
  193   192   205     1
  194   192   205     1
  192   194   195     1
  192   194   196     1
  192   194   197     1
  195   194   196     1
  195   194   197     1
  196   194   197     1
  194   197   198     1
  194   197   199     1
  194   197   200     1
  198   197   199     1
  198   197   200     1
  199   197   200     1
  197   200   201     1
  197   200   202     1
  201   200   202     1
  200   202   203     1
  200   202   204     1
  203   202   204     1
  192   205   206     1
  192   205   207     1
  206   205   207     1
  205   207   208     1
  205   207   209     1
  208   207   209     1
  207   209   210     1
  207   209   211     1
  207   209   217     1
  210   209   211     1
  210   209   217     1
  211   209   217     1
  209   211   212     1
  209   211   213     1
  209   211   214     1
  212   211   213     1
  212   211   214     1
  213   211   214     1
  211   214   215     1
  211   214   216     1
  215   214   216     1
  209   217   218     1
  209   217   219     1
  218   217   219     1
  217   219   220     1
  217   219   221     1
  220   219   221     1
  219   221   222     1
  219   221   223     1
  219   221   238     1
  222   221   223     1
  222   221   238     1
  223   221   238     1
  221   223   224     1
  221   223   225     1
  221   223   226     1
  224   223   225     1
  224   223   226     1
  225   223   226     1
  223   226   227     1
  223   226   236     1
  227   226   236     1
  226   227   228     1
  226   227   229     1
  228   227   229     1
  227   229   230     1
  227   229   231     1
  230   229   231     1
  229   231   232     1
  229   231   234     1
  232   231   234     1
  231   232   233     1
  231   234   235     1
  231   234   236     1
  235   234   236     1
  226   236   234     1
  226   236   237     1
  234   236   237     1
  221   238   239     1
  221   238   240     1
  239   238   240     1
  238   240   241     1
  238   240   242     1
  241   240   242     1
  240   242   243     1
  240   242   244     1
  240   242   253     1
  243   242   244     1
  243   242   253     1
  244   242   253     1
  242   244   245     1
  242   244   246     1
  242   244   247     1
  245   244   246     1
  245   244   247     1
  246   244   247     1
  244   247   248     1
  244   247   249     1
  244   247   250     1
  248   247   249     1
  248   247   250     1
  249   247   250     1
  247   250   251     1
  247   250   252     1
  251   250   252     1
  242   253   254     1
  242   253   255     1
  254   253   255     1
  253   255   256     1
  253   255   265     1
  256   255   265     1
  255   256   257     1
  255   256   258     1
  255   256   259     1
  257   256   258     1
  257   256   259     1
  258   256   259     1
  256   259   260     1
  256   259   261     1
  256   259   262     1
  260   259   261     1
  260   259   262     1
  261   259   262     1
  259   262   263     1
  259   262   264     1
  259   262   265     1
  263   262   264     1
  263   262   265     1
  264   262   265     1
  255   265   262     1
  255   265   266     1
  255   265   267     1
  262   265   266     1
  262   265   267     1
  266   265   267     1
  265   267   268     1
  265   267   269     1
  268   267   269     1
  267   269   270     1
  267   269   271     1
  270   269   271     1
  269   271   272     1
  269   271   273     1
  269   271   282     1
  272   271   273     1
  272   271   282     1
  273   271   282     1
  271   273   274     1
  271   273   275     1
  271   273   276     1
  274   273   275     1
  274   273   276     1
  275   273   276     1
  273   276   277     1
  273   276   278     1
  273   276   279     1
  277   276   278     1
  277   276   279     1
  278   276   279     1
  276   279   280     1
  276   279   281     1
  280   279   281     1
  271   282   283     1
  271   282   284     1
  283   282   284     1
  282   284   285     1
  282   284   286     1
  285   284   286     1
  284   286   287     1
  284   286   288     1
  284   286   292     1
  287   286   288     1
  287   286   292     1
  288   286   292     1
  286   288   289     1
  286   288   290     1
  286   288   291     1
  289   288   290     1
  289   288   291     1
  290   288   291     1
  286   292   293     1
  286   292   294     1
  293   292   294     1


[ dihedrals ]
    5    15    13    14     4  
    7    11    10    12     4  
   13    17    15    16     4  
   13    15    17    27     4     90.0        1.67360    2
   15    17    27    29     4     90.0        0.2385     3
   15    17    27    29     4     90.0        0.1046     4
   15    17    27    29     4     90.0        -0.0460    5
   15    17    27    29     4     160.888      2.71960    1
   15    17    27    29     4     90.0        -1.0669    1
   15    17    27    29     4     90.0        0.3138     2
   17    29    27    28     4  
   19    24    22    23     4  
   22    25    24    26     4  
   27    31    29    30     4  
   27    29    31    42     4     90.0        1.67360    2
   29    31    42    44     4     160.888      2.71960    1
   29    31    42    44     4     90.0        -1.0669    1
   29    31    42    44     4     90.0        0.3138     2
   29    31    42    44     4     90.0        0.2385     3
   29    31    42    44     4     90.0        0.1046     4
   29    31    42    44     4     90.0        -0.0460    5
   31    44    42    43     4  
   36    40    39    41     4  
   42    46    44    45     4  
   42    44    46    52     4     90.0        1.67360    2
   44    46    52    54     4     90.0        0.3138     2
   44    46    52    54     4     90.0        0.1046     4
   44    46    52    54     4     90.0        -0.0460    5
   44    46    52    54     4     90.0        0.2385     3
   44    46    52    54     4     160.888      2.71960    1
   44    46    52    54     4     90.0        -1.0669    1
   46    54    52    53     4  
   52    56    54    55     4  
   52    54    56    73     4     90.0        1.67360    2
   54    56    73    75     4     90.0        -1.0669    1
   54    56    73    75     4     90.0        0.3138     2
   54    56    73    75     4     90.0        0.2385     3
   54    56    73    75     4     90.0        0.1046     4
   54    56    73    75     4     90.0        -0.0460    5
   54    56    73    75     4     160.888      2.71960    1
   56    75    73    74     4  
   58    61    71    62     4  
   61    64    62    63     4  
   61    69    71    72     4  
   62    66    64    65     4  
   64    69    66    67     4  
   66    71    69    70     4  
   73    77    75    76     4  
   73    75    77    88     4     90.0        1.67360    2
   75    77    88    90     4     160.888      2.71960    1
   75    77    88    90     4     90.0        -1.0669    1
   75    77    88    90     4     90.0        0.3138     2
   75    77    88    90     4     90.0        0.1046     4
   75    77    88    90     4     90.0        -0.0460    5
   75    77    88    90     4     90.0        0.2385     3
   77    90    88    89     4  
   82    86    85    87     4  
   88    92    90    91     4  
   88    90    92   105     4     90.0        1.67360    2
   90    92   105   107     4     90.0        -1.0669    1
   90    92   105   107     4     90.0        0.3138     2
   90    92   105   107     4     90.0        0.2385     3
   90    92   105   107     4     90.0        0.1046     4
   90    92   105   107     4     90.0        -0.0460    5
   90    92   105   107     4     160.888      2.71960    1
   92   107   105   106     4  
  105   108   107   117     4  
  117   121   119   120     4  
  119   123   121   122     4  
  119   121   123   130     4     90.0        1.67360    2
  121   123   130   132     4     90.0        0.1046     4
  121   123   130   132     4     90.0        -0.0460    5
  121   123   130   132     4     90.0        0.2385     3
  121   123   130   132     4     160.888      2.71960    1
  121   123   130   132     4     90.0        -1.0669    1
  121   123   130   132     4     90.0        0.3138     2
  123   132   130   131     4  
  130   134   132   133     4  
  130   132   134   145     4     90.0        1.67360    2
  132   134   145   147     4     90.0        -1.0669    1
  132   134   145   147     4     90.0        0.3138     2
  132   134   145   147     4     90.0        0.2385     3
  132   134   145   147     4     90.0        0.1046     4
  132   134   145   147     4     90.0        -0.0460    5
  132   134   145   147     4     160.888      2.71960    1
  134   147   145   146     4  
  139   143   142   144     4  
  145   149   147   148     4  
  145   147   149   160     4     90.0        1.67360    2
  147   149   160   162     4     90.0        -1.0669    1
  147   149   160   162     4     90.0        0.3138     2
  147   149   160   162     4     90.0        0.2385     3
  147   149   160   162     4     90.0        0.1046     4
  147   149   160   162     4     90.0        -0.0460    5
  147   149   160   162     4     160.888      2.71960    1
  149   162   160   161     4  
  154   158   157   159     4  
  160   164   162   163     4  
  164   169   167   168     4  
  167   171   169   170     4  
  167   169   171   188     4     90.0        1.67360    2
  169   171   188   190     4     160.888      2.71960    1
  169   171   188   190     4     90.0        -1.0669    1
  169   171   188   190     4     90.0        0.3138     2
  169   171   188   190     4     90.0        0.2385     3
  169   171   188   190     4     90.0        0.1046     4
  169   171   188   190     4     90.0        -0.0460    5
  171   190   188   189     4  
  173   176   186   177     4  
  176   179   177   178     4  
  176   184   186   187     4  
  177   181   179   180     4  
  179   184   181   182     4  
  181   186   184   185     4  
  188   192   190   191     4  
  188   190   192   205     4     90.0        1.67360    2
  190   192   205   207     4     90.0        -1.0669    1
  190   192   205   207     4     160.888      2.71960    1
  190   192   205   207     4     90.0        0.3138     2
  190   192   205   207     4     90.0        0.2385     3
  190   192   205   207     4     90.0        0.1046     4
  190   192   205   207     4     90.0        -0.0460    5
  192   207   205   206     4  
  197   202   200   201     4  
  200   203   202   204     4  
  205   209   207   208     4  
  205   207   209   217     4     90.0        1.67360    2
  207   209   217   219     4     160.888      2.71960    1
  207   209   217   219     4     90.0        0.2385     3
  207   209   217   219     4     90.0        0.1046     4
  207   209   217   219     4     90.0        -0.0460    5
  207   209   217   219     4     90.0        0.3138     2
  207   209   217   219     4     90.0        -1.0669    1
  209   219   217   218     4  
  211   215   214   216     4  
  217   221   219   220     4  
  217   219   221   238     4     90.0        1.67360    2
  219   221   238   240     4     90.0        0.3138     2
  219   221   238   240     4     160.888      2.71960    1
  219   221   238   240     4     90.0        -1.0669    1
  219   221   238   240     4     90.0        0.2385     3
  219   221   238   240     4     90.0        0.1046     4
  219   221   238   240     4     90.0        -0.0460    5
  221   240   238   239     4  
  223   226   236   227     4  
  226   229   227   228     4  
  226   234   236   237     4  
  227   231   229   230     4  
  229   234   231   232     4  
  231   236   234   235     4  
  238   242   240   241     4  
  238   240   242   253     4     90.0        1.67360    2
  240   242   253   255     4     90.0        0.3138     2
  240   242   253   255     4     90.0        0.2385     3
  240   242   253   255     4     90.0        0.1046     4
  240   242   253   255     4     90.0        -0.0460    5
  240   242   253   255     4     160.888      2.71960    1
  240   242   253   255     4     90.0        -1.0669    1
  242   255   253   254     4  
  247   251   250   252     4  
  253   256   255   265     4  
  265   269   267   268     4  
  267   271   269   270     4  
  267   269   271   282     4     90.0        1.67360    2
  269   271   282   284     4     160.888      2.71960    1
  269   271   282   284     4     90.0        -1.0669    1
  269   271   282   284     4     90.0        0.3138     2
  269   271   282   284     4     90.0        0.2385     3
  269   271   282   284     4     90.0        0.1046     4
  269   271   282   284     4     90.0        -0.0460    5
  271   284   282   283     4  
  276   280   279   281     4  
  282   286   284   285     4  
  282   284   286   292     4     90.0        1.67360    2
  286   293   292   294     4  





[ moleculetype ]
;name            nrexcl
 L47              3

[ atoms ]
     1   c3     1   L47     C    1    -0.171100     12.01000 ; qtot -0.171
     2   hc     1   L47     H    2     0.082033      1.00800 ; qtot -0.089
     3   hc     1   L47    H1    3     0.082033      1.00800 ; qtot -0.007
     4   hc     1   L47    H2    4     0.082033      1.00800 ; qtot 0.075
     5    c     1   L47    C1    5     0.681100     12.01000 ; qtot 0.756
     6    o     1   L47     O    6    -0.559100     16.00000 ; qtot 0.197
     7    n     1   L47     N    7    -0.382000     14.01000 ; qtot -0.185
     8   c3     1   L47    C2    8     0.082000     12.01000 ; qtot -0.103
     9   h1     1   L47    H3    9     0.067200      1.00800 ; qtot -0.036
    10   h1     1   L47    H4   10     0.067200      1.00800 ; qtot 0.031
    11   c3     1   L47    C3   11    -0.040100     12.01000 ; qtot -0.009
    12   hc     1   L47    H5   12     0.078700      1.00800 ; qtot 0.070
    13   hc     1   L47    H6   13     0.078700      1.00800 ; qtot 0.149
    14   ca     1   L47    C4   14    -0.167300     12.01000 ; qtot -0.019
    15   ca     1   L47    C5   15     0.173600     12.01000 ; qtot 0.155
    16   ca     1   L47    C6   16    -0.185000     12.01000 ; qtot -0.030
    17   ha     1   L47    H7   17     0.191000      1.00800 ; qtot 0.161
    18   ca     1   L47    C7   18     0.023000     12.01000 ; qtot 0.184
    19   ha     1   L47    H8   19     0.143000      1.00800 ; qtot 0.327
    20   ca     1   L47    C8   20    -0.498500     12.01000 ; qtot -0.172
    21   ca     1   L47    C9   21     0.038000     12.01000 ; qtot -0.134
    22   ha     1   L47    H9   22     0.161000      1.00800 ; qtot 0.027
    23   sy     1   L47     S   23     1.523201     32.06000 ; qtot 1.551
    24    o     1   L47    O1   24    -0.667800     16.00000 ; qtot 0.883
    25    o     1   L47    O2   25    -0.667800     16.00000 ; qtot 0.215
    26   n3     1   L47    N1   26    -0.795500     14.01000 ; qtot -0.580
    27   c3     1   L47   C10   27     0.195800     12.01000 ; qtot -0.385
    28   h1     1   L47   H10   28     0.089200      1.00800 ; qtot -0.295
    29   h1     1   L47   H11   29     0.089200      1.00800 ; qtot -0.206
    30   c3     1   L47   C11   30    -0.140400     12.01000 ; qtot -0.347
    31   hc     1   L47   H12   31     0.094200      1.00800 ; qtot -0.252
    32   hc     1   L47   H13   32     0.094200      1.00800 ; qtot -0.158
    33   c3     1   L47   C12   33     0.113800     12.01000 ; qtot -0.044
    34   hx     1   L47   H14   34     0.099700      1.00800 ; qtot 0.055
    35   hx     1   L47   H15   35     0.099700      1.00800 ; qtot 0.155
    36   n4     1   L47    N2   36    -0.762000     14.01000 ; qtot -0.607
    37   hn     1   L47   H16   37     0.471300      1.00800 ; qtot -0.136
    38   hn     1   L47   H17   38     0.471300      1.00800 ; qtot 0.336
    39   c3     1   L47   C13   39     0.070800     12.01000 ; qtot 0.406
    40   hx     1   L47   H18   40     0.103200      1.00800 ; qtot 0.510
    41   hx     1   L47   H19   41     0.103200      1.00800 ; qtot 0.613
    42   c3     1   L47   C14   42     0.210800     12.01000 ; qtot 0.824
    43   h1     1   L47   H20   43     0.088200      1.00800 ; qtot 0.912
    44   h1     1   L47   H21   44     0.088200      1.00800 ; qtot 1.000


[ bonds ]
     1      2   1    1.0969e-01    2.7665e+05 ;      C - H     
     1      3   1    1.0969e-01    2.7665e+05 ;      C - H1    
     1      4   1    1.0969e-01    2.7665e+05 ;      C - H2    
     1      5   1    1.5241e-01    2.6192e+05 ;      C - C1    
     5      6   1    1.2183e-01    5.3363e+05 ;     C1 - O     
     5      7   1    1.3789e-01    3.5782e+05 ;     C1 - N     
     7      8   1    1.4619e-01    2.7506e+05 ;      N - C2    
     7     15   1    1.4121e-01    3.2150e+05 ;      N - C5    
     8      9   1    1.0969e-01    2.7665e+05 ;     C2 - H3    
     8     10   1    1.0969e-01    2.7665e+05 ;     C2 - H4    
     8     11   1    1.5375e-01    2.5179e+05 ;     C2 - C3    
    11     12   1    1.0969e-01    2.7665e+05 ;     C3 - H5    
    11     13   1    1.0969e-01    2.7665e+05 ;     C3 - H6    
    11     14   1    1.5156e-01    2.6861e+05 ;     C3 - C4    
    14     15   1    1.3984e-01    3.8585e+05 ;     C4 - C5    
    14     21   1    1.3984e-01    3.8585e+05 ;     C4 - C9    
    15     16   1    1.3984e-01    3.8585e+05 ;     C5 - C6    
    16     17   1    1.0860e-01    2.8937e+05 ;     C6 - H7    
    16     18   1    1.3984e-01    3.8585e+05 ;     C6 - C7    
    18     19   1    1.0860e-01    2.8937e+05 ;     C7 - H8    
    18     20   1    1.3984e-01    3.8585e+05 ;     C7 - C8    
    20     21   1    1.3984e-01    3.8585e+05 ;     C8 - C9    
    20     23   1    1.7909e-01    2.0368e+05 ;     C8 - S     
    21     22   1    1.0860e-01    2.8937e+05 ;     C9 - H9    
    23     24   1    1.4660e-01    4.1254e+05 ;      S - O1    
    23     25   1    1.4660e-01    4.1254e+05 ;      S - O2    
    23     26   1    1.6962e-01    2.4886e+05 ;      S - N1    
    26     27   1    1.4647e-01    2.7271e+05 ;     N1 - C10   
    26     42   1    1.4647e-01    2.7271e+05 ;     N1 - C14   
    27     28   1    1.0969e-01    2.7665e+05 ;    C10 - H10   
    27     29   1    1.0969e-01    2.7665e+05 ;    C10 - H11   
    27     30   1    1.5375e-01    2.5179e+05 ;    C10 - C11   
    30     31   1    1.0969e-01    2.7665e+05 ;    C11 - H12   
    30     32   1    1.0969e-01    2.7665e+05 ;    C11 - H13   
    30     33   1    1.5375e-01    2.5179e+05 ;    C11 - C12   
    33     34   1    1.0910e-01    2.8342e+05 ;    C12 - H14   
    33     35   1    1.0910e-01    2.8342e+05 ;    C12 - H15   
    33     36   1    1.5110e-01    2.3707e+05 ;    C12 - N2    
    36     37   1    1.0304e-01    3.1229e+05 ;     N2 - H16   
    36     38   1    1.0304e-01    3.1229e+05 ;     N2 - H17   
    36     39   1    1.5110e-01    2.3707e+05 ;     N2 - C13   
    39     40   1    1.0910e-01    2.8342e+05 ;    C13 - H18   
    39     41   1    1.0910e-01    2.8342e+05 ;    C13 - H19   
    39     42   1    1.5375e-01    2.5179e+05 ;    C13 - C14   
    42     43   1    1.0969e-01    2.7665e+05 ;    C14 - H20   
    42     44   1    1.0969e-01    2.7665e+05 ;    C14 - H21   


[ pairs ]
     1      8      1 ;      C - C2    
     1     15      1 ;      C - C5    
     2      6      1 ;      H - O     
     2      7      1 ;      H - N     
     3      6      1 ;     H1 - O     
     3      7      1 ;     H1 - N     
     4      6      1 ;     H2 - O     
     4      7      1 ;     H2 - N     
     5      9      1 ;     C1 - H3    
     5     10      1 ;     C1 - H4    
     5     11      1 ;     C1 - C3    
     5     14      1 ;     C1 - C4    
     5     16      1 ;     C1 - C6    
     6      8      1 ;      O - C2    
     6     15      1 ;      O - C5    
     7     12      1 ;      N - H5    
     7     13      1 ;      N - H6    
     7     17      1 ;      N - H7    
     7     18      1 ;      N - C7    
     7     21      1 ;      N - C9    
     8     16      1 ;     C2 - C6    
     8     21      1 ;     C2 - C9    
     9     12      1 ;     H3 - H5    
     9     13      1 ;     H3 - H6    
     9     14      1 ;     H3 - C4    
     9     15      1 ;     H3 - C5    
    10     12      1 ;     H4 - H5    
    10     13      1 ;     H4 - H6    
    10     14      1 ;     H4 - C4    
    10     15      1 ;     H4 - C5    
    11     16      1 ;     C3 - C6    
    11     20      1 ;     C3 - C8    
    11     22      1 ;     C3 - H9    
    12     15      1 ;     H5 - C5    
    12     21      1 ;     H5 - C9    
    13     15      1 ;     H6 - C5    
    13     21      1 ;     H6 - C9    
    14     17      1 ;     C4 - H7    
    14     18      1 ;     C4 - C7    
    14     23      1 ;     C4 - S     
    15     19      1 ;     C5 - H8    
    15     20      1 ;     C5 - C8    
    15     22      1 ;     C5 - H9    
    16     21      1 ;     C6 - C9    
    16     23      1 ;     C6 - S     
    17     19      1 ;     H7 - H8    
    17     20      1 ;     H7 - C8    
    18     22      1 ;     C7 - H9    
    18     24      1 ;     C7 - O1    
    18     25      1 ;     C7 - O2    
    18     26      1 ;     C7 - N1    
    19     21      1 ;     H8 - C9    
    19     23      1 ;     H8 - S     
    20     27      1 ;     C8 - C10   
    20     42      1 ;     C8 - C14   
    21     24      1 ;     C9 - O1    
    21     25      1 ;     C9 - O2    
    21     26      1 ;     C9 - N1    
    22     23      1 ;     H9 - S     
    23     28      1 ;      S - H10   
    23     29      1 ;      S - H11   
    23     30      1 ;      S - C11   
    23     39      1 ;      S - C13   
    23     43      1 ;      S - H20   
    23     44      1 ;      S - H21   
    24     27      1 ;     O1 - C10   
    24     42      1 ;     O1 - C14   
    25     27      1 ;     O2 - C10   
    25     42      1 ;     O2 - C14   
    26     31      1 ;     N1 - H12   
    26     32      1 ;     N1 - H13   
    26     33      1 ;     N1 - C12   
    26     36      1 ;     N1 - N2    
    26     40      1 ;     N1 - H18   
    26     41      1 ;     N1 - H19   
    27     34      1 ;    C10 - H14   
    27     35      1 ;    C10 - H15   
    27     36      1 ;    C10 - N2    
    27     39      1 ;    C10 - C13   
    27     43      1 ;    C10 - H20   
    27     44      1 ;    C10 - H21   
    28     31      1 ;    H10 - H12   
    28     32      1 ;    H10 - H13   
    28     33      1 ;    H10 - C12   
    28     42      1 ;    H10 - C14   
    29     31      1 ;    H11 - H12   
    29     32      1 ;    H11 - H13   
    29     33      1 ;    H11 - C12   
    29     42      1 ;    H11 - C14   
    30     37      1 ;    C11 - H16   
    30     38      1 ;    C11 - H17   
    30     39      1 ;    C11 - C13   
    30     42      1 ;    C11 - C14   
    31     34      1 ;    H12 - H14   
    31     35      1 ;    H12 - H15   
    31     36      1 ;    H12 - N2    
    32     34      1 ;    H13 - H14   
    32     35      1 ;    H13 - H15   
    32     36      1 ;    H13 - N2    
    33     40      1 ;    C12 - H18   
    33     41      1 ;    C12 - H19   
    33     42      1 ;    C12 - C14   
    34     37      1 ;    H14 - H16   
    34     38      1 ;    H14 - H17   
    34     39      1 ;    H14 - C13   
    35     37      1 ;    H15 - H16   
    35     38      1 ;    H15 - H17   
    35     39      1 ;    H15 - C13   
    36     43      1 ;     N2 - H20   
    36     44      1 ;     N2 - H21   
    37     40      1 ;    H16 - H18   
    37     41      1 ;    H16 - H19   
    37     42      1 ;    H16 - C14   
    38     40      1 ;    H17 - H18   
    38     41      1 ;    H17 - H19   
    38     42      1 ;    H17 - C14   
    40     43      1 ;    H18 - H20   
    40     44      1 ;    H18 - H21   
    41     43      1 ;    H19 - H20   
    41     44      1 ;    H19 - H21   


[ angles ]
     1      5      6      1    1.2320e+02    5.6400e+02 ;      C - C1     - O     
     1      5      7      1    1.1518e+02    5.5898e+02 ;      C - C1     - N     
     2      1      3      1    1.0758e+02    3.2970e+02 ;      H - C      - H1    
     2      1      4      1    1.0758e+02    3.2970e+02 ;      H - C      - H2    
     2      1      5      1    1.0877e+02    3.9246e+02 ;      H - C      - C1    
     3      1      4      1    1.0758e+02    3.2970e+02 ;     H1 - C      - H2    
     3      1      5      1    1.0877e+02    3.9246e+02 ;     H1 - C      - C1    
     4      1      5      1    1.0877e+02    3.9246e+02 ;     H2 - C      - C1    
     5      7      8      1    1.2069e+02    5.3053e+02 ;     C1 - N      - C2    
     5      7     15      1    1.2371e+02    5.3388e+02 ;     C1 - N      - C5    
     6      5      7      1    1.2305e+02    6.2091e+02 ;      O - C1     - N     
     7      8      9      1    1.0888e+02    4.1673e+02 ;      N - C2     - H3    
     7      8     10      1    1.0888e+02    4.1673e+02 ;      N - C2     - H4    
     7      8     11      1    1.1161e+02    5.5145e+02 ;      N - C2     - C3    
     7     15     14      1    1.2019e+02    5.6819e+02 ;      N - C5     - C4    
     7     15     16      1    1.2019e+02    5.6819e+02 ;      N - C5     - C6    
     8      7     15      1    1.1983e+02    5.2718e+02 ;     C2 - N      - C5    
     8     11     12      1    1.0980e+02    3.8744e+02 ;     C2 - C3     - H5    
     8     11     13      1    1.0980e+02    3.8744e+02 ;     C2 - C3     - H6    
     8     11     14      1    1.1207e+02    5.2802e+02 ;     C2 - C3     - C4    
     9      8     10      1    1.0846e+02    3.2803e+02 ;     H3 - C2     - H4    
     9      8     11      1    1.0956e+02    3.8828e+02 ;     H3 - C2     - C3    
    10      8     11      1    1.0956e+02    3.8828e+02 ;     H4 - C2     - C3    
    11     14     15      1    1.2077e+02    5.3137e+02 ;     C3 - C4     - C5    
    11     14     21      1    1.2077e+02    5.3137e+02 ;     C3 - C4     - C9    
    12     11     13      1    1.0758e+02    3.2970e+02 ;     H5 - C3     - H6    
    12     11     14      1    1.1047e+02    3.9162e+02 ;     H5 - C3     - C4    
    13     11     14      1    1.1047e+02    3.9162e+02 ;     H6 - C3     - C4    
    14     15     16      1    1.2002e+02    5.5731e+02 ;     C4 - C5     - C6    
    14     21     20      1    1.2002e+02    5.5731e+02 ;     C4 - C9     - C8    
    14     21     22      1    1.1988e+02    4.0334e+02 ;     C4 - C9     - H9    
    15     14     21      1    1.2002e+02    5.5731e+02 ;     C5 - C4     - C9    
    15     16     17      1    1.1988e+02    4.0334e+02 ;     C5 - C6     - H7    
    15     16     18      1    1.2002e+02    5.5731e+02 ;     C5 - C6     - C7    
    16     18     19      1    1.1988e+02    4.0334e+02 ;     C6 - C7     - H8    
    16     18     20      1    1.2002e+02    5.5731e+02 ;     C6 - C7     - C8    
    17     16     18      1    1.1988e+02    4.0334e+02 ;     H7 - C6     - C7    
    18     20     21      1    1.2002e+02    5.5731e+02 ;     C7 - C8     - C9    
    18     20     23      1    1.1942e+02    5.1463e+02 ;     C7 - C8     - S     
    19     18     20      1    1.1988e+02    4.0334e+02 ;     H8 - C7     - C8    
    20     21     22      1    1.1988e+02    4.0334e+02 ;     C8 - C9     - H9    
    20     23     24      1    1.0835e+02    5.5061e+02 ;     C8 - S      - O1    
    20     23     25      1    1.0835e+02    5.5061e+02 ;     C8 - S      - O2    
    20     23     26      1    1.0244e+02    5.3555e+02 ;     C8 - S      - N1    
    21     20     23      1    1.1942e+02    5.1463e+02 ;     C9 - C8     - S     
    23     26     27      1    1.1525e+02    5.2300e+02 ;      S - N1     - C10   
    23     26     42      1    1.1525e+02    5.2300e+02 ;      S - N1     - C14   
    24     23     25      1    1.2141e+02    6.0668e+02 ;     O1 - S      - O2    
    24     23     26      1    1.0713e+02    5.8911e+02 ;     O1 - S      - N1    
    25     23     26      1    1.0713e+02    5.8911e+02 ;     O2 - S      - N1    
    26     27     28      1    1.0988e+02    4.1422e+02 ;     N1 - C10    - H10   
    26     27     29      1    1.0988e+02    4.1422e+02 ;     N1 - C10    - H11   
    26     27     30      1    1.1104e+02    5.5229e+02 ;     N1 - C10    - C11   
    26     42     39      1    1.1104e+02    5.5229e+02 ;     N1 - C14    - C13   
    26     42     43      1    1.0988e+02    4.1422e+02 ;     N1 - C14    - H20   
    26     42     44      1    1.0988e+02    4.1422e+02 ;     N1 - C14    - H21   
    27     26     42      1    1.1235e+02    5.3388e+02 ;    C10 - N1     - C14   
    27     30     31      1    1.0980e+02    3.8744e+02 ;    C10 - C11    - H12   
    27     30     32      1    1.0980e+02    3.8744e+02 ;    C10 - C11    - H13   
    27     30     33      1    1.1151e+02    5.2635e+02 ;    C10 - C11    - C12   
    28     27     29      1    1.0846e+02    3.2803e+02 ;    H10 - C10    - H11   
    28     27     30      1    1.0956e+02    3.8828e+02 ;    H10 - C10    - C11   
    29     27     30      1    1.0956e+02    3.8828e+02 ;    H11 - C10    - C11   
    30     33     34      1    1.1056e+02    3.8660e+02 ;    C11 - C12    - H14   
    30     33     35      1    1.1056e+02    3.8660e+02 ;    C11 - C12    - H15   
    30     33     36      1    1.1421e+02    5.3723e+02 ;    C11 - C12    - N2    
    31     30     32      1    1.0758e+02    3.2970e+02 ;    H12 - C11    - H13   
    31     30     33      1    1.0980e+02    3.8744e+02 ;    H12 - C11    - C12   
    32     30     33      1    1.0980e+02    3.8744e+02 ;    H13 - C11    - C12   
    33     36     37      1    1.1011e+02    3.8409e+02 ;    C12 - N2     - H16   
    33     36     38      1    1.1011e+02    3.8409e+02 ;    C12 - N2     - H17   
    33     36     39      1    1.0966e+02    5.2384e+02 ;    C12 - N2     - C13   
    34     33     35      1    1.0975e+02    3.2803e+02 ;    H14 - C12    - H15   
    34     33     36      1    1.0801e+02    4.0668e+02 ;    H14 - C12    - N2    
    35     33     36      1    1.0801e+02    4.0668e+02 ;    H15 - C12    - N2    
    36     39     40      1    1.0801e+02    4.0668e+02 ;     N2 - C13    - H18   
    36     39     41      1    1.0801e+02    4.0668e+02 ;     N2 - C13    - H19   
    36     39     42      1    1.1421e+02    5.3723e+02 ;     N2 - C13    - C14   
    37     36     38      1    1.0830e+02    3.3974e+02 ;    H16 - N2     - H17   
    37     36     39      1    1.1011e+02    3.8409e+02 ;    H16 - N2     - C13   
    38     36     39      1    1.1011e+02    3.8409e+02 ;    H17 - N2     - C13   
    39     42     43      1    1.0956e+02    3.8828e+02 ;    C13 - C14    - H20   
    39     42     44      1    1.0956e+02    3.8828e+02 ;    C13 - C14    - H21   
    40     39     41      1    1.0975e+02    3.2803e+02 ;    H18 - C13    - H19   
    40     39     42      1    1.1056e+02    3.8660e+02 ;    H18 - C13    - C14   
    41     39     42      1    1.1056e+02    3.8660e+02 ;    H19 - C13    - C14   
    43     42     44      1    1.0846e+02    3.2803e+02 ;    H20 - C14    - H21   


[ dihedrals ]
     1      7      5      6      4   180.00  43.93200   2 ;      C-     N-    C1-     O
     5      8      7     15      4   180.00   4.60240   2 ;     C1-    C2-     N-    C5
    14     16     15      7      4   180.00   4.60240   2 ;     C4-    C6-    C5-     N
    14     20     21     22      4   180.00   4.60240   2 ;     C4-    C8-    C9-    H9
    15     18     16     17      4   180.00   4.60240   2 ;     C5-    C7-    C6-    H7
    15     21     14     11      4   180.00   4.60240   2 ;     C5-    C9-    C4-    C3
    16     20     18     19      4   180.00   4.60240   2 ;     C6-    C8-    C7-    H8
    18     21     20     23      4   180.00   4.60240   2 ;     C7-    C9-    C8-     S



[ moleculetype ]
; molname	nrexcl
SOL		1

[ atoms ]
1       OW_tip4pd    	1	SOL	 OW		1	0        16.00000
2	HW       	1	SOL	HW2		1	0.5900 	  1.00800
3	HW	        1	SOL	HW3		1	0.5900 	  1.00800
4	MW		1	SOL	MW4		1      -1.1800    0.00000


[ settles ]
1	1	0.09572	0.15139


[ virtual_sites3 ]
4	1	2	3	1	0.131937768	0.131937768


[ exclusions ]
1	2	3	4
2	1	3	4
3	1	2	4
4	1	2	3




[ moleculetype ]
; molname       nrexcl
IB+             1       ; big positive ion

[ atoms ]
   1    IB                  1       IB+            IB      1    1.00000



[ moleculetype ]
; molname       nrexcl
CA              1

[ atoms ]
   1    C0                  1       CA             CA      1    2.00000



[ moleculetype ]
; molname       nrexcl
CL              1

[ atoms ]
   1    Cl                  1       CL             CL      1   -1.00000



[ moleculetype ]
; molname       nrexcl
NA              1

[ atoms ]
   1    Na                  1       NA             NA      1    1.00000



[ moleculetype ]
; molname       nrexcl
MG              1

[ atoms ]
   1    MG                  1       MG             MG      1    2.00000



[ moleculetype ]
; molname       nrexcl
K               1

[ atoms ]
   1    K                   1       K              K       1    1.00000



[ moleculetype ]
; molname       nrexcl
RB              1

[ atoms ]
   1    Rb                  1       RB             RB      1    1.00000



[ moleculetype ]
; molname       nrexcl
CS              1

[ atoms ]
   1    Cs                  1       CS             CS      1    1.00000



[ moleculetype ]
; molname       nrexcl
LI              1

[ atoms ]
   1    Li                  1       LI             LI      1    1.00000



[ moleculetype ]
; molname       nrexcl
ZN              1

[ atoms ]
   1    Zn                  1       ZN             ZN      1    2.00000


 [ system ] 
; Name
A-SYNC WITH LIG-47 in water

 [ molecules ] 
; Compound        #mols
Protein_chain_A     1
L47		    1
SOL         8739
NA               7

