 [ defaults ] 
; nbfunc        comb-rule       gen-pairs       fudgeLJ fudgeQQ
1               2               yes             0.5     0.8333

[ atomtypes ]
Br           35      79.90   0.0000  A  0.00000e+00  0.00000e+00
sBr          Br      79.90   0.0000  A  0.00000e+00  0.00000e+00
C            6       12.01   0.0000  A  3.39967e-01  3.59824e-01
sC           C       12.01   0.0000  A  3.39967e-01  2.39883e-01
C6           6       12.01   0.0000  A  3.39967e-01  3.59824e-01
sC6          C6      12.01   0.0000  A  3.39967e-01  2.39883e-01
C5           6       12.01   0.0000  A  3.39967e-01  3.59824e-01
sC5          C5      12.01   0.0000  A  3.39967e-01  2.39883e-01
CA           6       12.01   0.0000  A  3.39967e-01  3.59824e-01
sCA          CA      12.01   0.0000  A  3.39967e-01  2.39883e-01
CB           6       12.01   0.0000  A  3.39967e-01  3.59824e-01
sCB          CB      12.01   0.0000  A  3.39967e-01  2.39883e-01
CC           6       12.01   0.0000  A  3.39967e-01  3.59824e-01
sCC          CC      12.01   0.0000  A  3.39967e-01  2.39883e-01
CK           6       12.01   0.0000  A  3.39967e-01  3.59824e-01
sCK          CK      12.01   0.0000  A  3.39967e-01  2.39883e-01
CM           6       12.01   0.0000  A  3.39967e-01  3.59824e-01
sCM          CM      12.01   0.0000  A  3.39967e-01  2.39883e-01
CN           6       12.01   0.0000  A  3.39967e-01  3.59824e-01
sCN          CN      12.01   0.0000  A  3.39967e-01  2.39883e-01
CQ           6       12.01   0.0000  A  3.39967e-01  3.59824e-01
sCQ          CQ      12.01   0.0000  A  3.39967e-01  2.39883e-01
CR           6       12.01   0.0000  A  3.39967e-01  3.59824e-01
sCR          CR      12.01   0.0000  A  3.39967e-01  2.39883e-01
CT           6       12.01   0.0000  A  3.39967e-01  4.57730e-01
sCT          CT      12.01   0.0000  A  3.39967e-01  3.05153e-01
C1           6       12.01   0.0000  A  3.39967e-01  4.57730e-01
sC1          C1      12.01   0.0000  A  3.39967e-01  3.05153e-01
C3           6       12.01   0.0000  A  3.39967e-01  4.57730e-01
sC3          C3      12.01   0.0000  A  3.39967e-01  3.05153e-01
C4           6       12.01   0.0000  A  3.39967e-01  4.57730e-01
sC4          C4      12.01   0.0000  A  3.39967e-01  3.05153e-01
C7           6       12.01   0.0000  A  3.39967e-01  4.57730e-01
sC7          C7      12.01   0.0000  A  3.39967e-01  3.05153e-01
C8           6       12.01   0.0000  A  3.39967e-01  4.57730e-01
sC8          C8      12.01   0.0000  A  3.39967e-01  3.05153e-01
C9           6       12.01   0.0000  A  3.39967e-01  4.57730e-01
sC9          C9      12.01   0.0000  A  3.39967e-01  3.05153e-01
CV           6       12.01   0.0000  A  3.39967e-01  3.59824e-01
sCV          CV      12.01   0.0000  A  3.39967e-01  2.39883e-01
CW           6       12.01   0.0000  A  3.39967e-01  3.59824e-01
sCW          CW      12.01   0.0000  A  3.39967e-01  2.39883e-01
C*           6       12.01   0.0000  A  3.39967e-01  3.59824e-01
sC*          C*      12.01   0.0000  A  3.39967e-01  2.39883e-01
C0           20      40.08   0.0000  A  3.05240e-01  1.92376e+00
sC0          C0      40.08   0.0000  A  3.05240e-01  1.28251e+00
F            9       19.00   0.0000  A  3.11815e-01  2.55224e-01
sF           F       19.00   0.0000  A  3.11815e-01  1.70149e-01
H            1       1.008   0.0000  A  1.06908e-01  6.56888e-02
sH           H       1.008   0.0000  A  1.06908e-01  4.37925e-02
HB           1       1.008   0.0000  A  1.06908e-01  6.56888e-02
sHB          HB      1.008   0.0000  A  1.06908e-01  4.37925e-02
HC           1       1.008   0.0000  A  2.64953e-01  6.56888e-02
sHC          HC      1.008   0.0000  A  2.64953e-01  4.37925e-02
H1           1       1.008   0.0000  A  2.47135e-01  6.56888e-02
sH1          H1      1.008   0.0000  A  2.47135e-01  4.37925e-02
H2           1       1.008   0.0000  A  2.29317e-01  6.56888e-02
sH2          H2      1.008   0.0000  A  2.29317e-01  4.37925e-02
H3           1       1.008   0.0000  A  2.11499e-01  6.56888e-02
sH3          H3      1.008   0.0000  A  2.11499e-01  4.37925e-02
HA           1       1.008   0.0000  A  2.59964e-01  6.27600e-02
sHA          HA      1.008   0.0000  A  2.59964e-01  4.18400e-02
H4           1       1.008   0.0000  A  2.51055e-01  6.27600e-02
sH4          H4      1.008   0.0000  A  2.51055e-01  4.18400e-02
H5           1       1.008   0.0000  A  2.42146e-01  6.27600e-02
sH5          H5      1.008   0.0000  A  2.42146e-01  4.18400e-02
HO           1       1.008   0.0000  A  0.00000e+00  0.00000e+00
sHO          HO      1.008   0.0000  A  0.00000e+00  0.00000e+00
HS           1       1.008   0.0000  A  1.06908e-01  6.56888e-02
sHS          HS      1.008   0.0000  A  1.06908e-01  4.37925e-02
HW           1       1.008   0.0000  A  0.00000e+00  0.00000e+00
sHW          HW      1.008   0.0000  A  0.00000e+00  0.00000e+00
HP           1       1.008   0.0000  A  1.95998e-01  6.56888e-02
sHP          HP      1.008   0.0000  A  1.95998e-01  4.37925e-02
I            53      126.9   0.0000  A  4.18722e-01  1.67360e+00
sI           I       126.9   0.0000  A  4.18722e-01  1.11573e+00
Cl           17      35.45   0.0000  A  4.40104e-01  4.18400e-01
sCl          Cl      35.45   0.0000  A  4.40104e-01  2.78933e-01
Na           11      22.99   0.0000  A  3.32840e-01  1.15897e-02
sNa          Na      22.99   0.0000  A  3.32840e-01  7.72647e-03
IB           0       131.0   0.0000  A  8.90899e-01  4.18400e-01
sIB          IB      131.0   0.0000  A  8.90899e-01  2.78933e-01
MG           12     24.305   0.0000  A  1.41225e-01  3.74342e+00
sMG          MG     24.305   0.0000  A  1.41225e-01  2.49561e+00
N            7       14.01   0.0000  A  3.25000e-01  7.11280e-01
sN           N       14.01   0.0000  A  3.25000e-01  4.74187e-01
NA           7       14.01   0.0000  A  3.25000e-01  7.11280e-01
sNA          NA      14.01   0.0000  A  3.25000e-01  4.74187e-01
NB           7       14.01   0.0000  A  3.25000e-01  7.11280e-01
sNB          NB      14.01   0.0000  A  3.25000e-01  4.74187e-01
NC           7       14.01   0.0000  A  3.25000e-01  7.11280e-01
sNC          NC      14.01   0.0000  A  3.25000e-01  4.74187e-01
N2           7       14.01   0.0000  A  3.25000e-01  7.11280e-01
sN2          N2      14.01   0.0000  A  3.25000e-01  4.74187e-01
N3           7       14.01   0.0000  A  3.25000e-01  7.11280e-01
sN3          N3      14.01   0.0000  A  3.25000e-01  4.74187e-01
N*           7       14.01   0.0000  A  3.25000e-01  7.11280e-01
sN*          N*      14.01   0.0000  A  3.25000e-01  4.74187e-01
O            8       16.00   0.0000  A  2.95992e-01  8.78640e-01
sO           O       16.00   0.0000  A  2.95992e-01  5.85760e-01
OB           8       16.00   0.0000  A  2.95992e-01  8.78640e-01
sOB          OB      16.00   0.0000  A  2.95992e-01  5.85760e-01
OW           8       16.00   0.0000  A  3.15061e-01  6.36386e-01
sOW          OW      16.00   0.0000  A  3.15061e-01  4.24257e-01
OH           8       16.00   0.0000  A  3.06647e-01  8.80314e-01
sOH          OH      16.00   0.0000  A  3.06647e-01  5.86876e-01
O3           8       16.00   0.0000  A  3.06647e-01  8.80314e-01
sO3          O3      16.00   0.0000  A  3.06647e-01  5.86876e-01
OS           8       16.00   0.0000  A  3.00001e-01  7.11280e-01
sOS          OS      16.00   0.0000  A  3.00001e-01  4.74187e-01
O2           8       16.00   0.0000  A  2.95992e-01  8.78640e-01
sO2          O2      16.00   0.0000  A  2.95992e-01  5.85760e-01
P            15      30.97   0.0000  A  3.74177e-01  8.36800e-01
sP           P       30.97   0.0000  A  3.74177e-01  5.57867e-01
S            16      32.06   0.0000  A  3.56359e-01  1.04600e+00
sS           S       32.06   0.0000  A  3.56359e-01  6.97333e-01
SH           16      32.06   0.0000  A  3.56359e-01  1.04600e+00
sSH          SH      32.06   0.0000  A  3.56359e-01  6.97333e-01
CU           29      63.55   0.0000  A  3.39967e-01  3.59824e-01
sCU          CU      63.55   0.0000  A  3.39967e-01  2.39883e-01
FE           26      55.00   0.0000  A  0.00000e+00  0.00000e+00
sFE          FE      55.00   0.0000  A  0.00000e+00  0.00000e+00
K            19      39.10   0.0000  A  4.73602e-01  1.37235e-03
sK           K       39.10   0.0000  A  4.73602e-01  9.14900e-04
Rb           37      85.47   0.0000  A  5.26699e-01  7.11280e-04
sRb          Rb      85.47   0.0000  A  5.26699e-01  4.74187e-04
Cs           55     132.91   0.0000  A  6.04920e-01  3.37230e-04
sCs          Cs     132.91   0.0000  A  6.04920e-01  2.24820e-04
OW_spc       8      15.9994   0.0000  A  3.16557e-01  6.50629e-01
sOW_spc      OW_spc 15.9994   0.0000  A  3.16557e-01  4.33753e-01
HW_spc       1      1.0080   0.0000  A  0.00000e+00  0.00000e+00
sHW_spc      HW_spc 1.0080   0.0000  A  0.00000e+00  0.00000e+00
Li           3        6.94   0.0000  A  2.02590e-01  7.65672e-02
sLi          Li       6.94   0.0000  A  2.02590e-01  5.10448e-02
Zn           30       65.4   0.0000  A  1.95998e-01  5.23000e-02
sZn          Zn       65.4   0.0000  A  1.95998e-01  3.48667e-02
HW_tip4pew   1       1.008   0.0000  A  0.00000e+00  0.00000e+00
sHW_tip4pew  HW_tip4pew  1.008   0.0000  A  0.00000e+00  0.00000e+00
OW_tip4pew   8       16.00   0.0000  A  3.16435e-01  6.80946e-01
sOW_tip4pew  OW_tip4pew  16.00   0.0000  A  3.16435e-01  4.53964e-01
HW_tip4p     1       1.008   0.0000  A  0.00000e+00  0.00000e+00
sHW_tip4p    HW_tip4p  1.008   0.0000  A  0.00000e+00  0.00000e+00
OW_tip4p     8       16.00   0.0000  A  3.15365e-01  6.48520e-01
sOW_tip4p    OW_tip4p  16.00   0.0000  A  3.15365e-01  4.32347e-01
HW_tip5p     1       1.008   0.0000  A  0.00000e+00  0.00000e+00
sHW_tip5p    HW_tip5p  1.008   0.0000  A  0.00000e+00  0.00000e+00
OW_tip5p     8       16.00   0.0000  A  3.12000e-01  6.69440e-01
sOW_tip5p    OW_tip5p  16.00   0.0000  A  3.12000e-01  4.46293e-01
HW_tip4pd    1       1.008   0.0000  A  0.00000e+00  0.00000e+00
sHW_tip4pd   HW_tip4pd  1.008   0.0000  A  0.00000e+00  0.00000e+00
OW_tip4pd    8       16.00   0.0000  A  3.16500e-01  9.98989e-01
sOW_tip4pd   OW_tip4pd  16.00   0.0000  A  3.16500e-01  6.65993e-01
MW           0      0.0000   0.0000  A  0.00000e+00  0.00000e+00
sMW          MW     0.0000   0.0000  A  0.00000e+00  0.00000e+00
MCH3         0      0.0000   0.0000  A  0.00000e+00  0.00000e+00
sMCH3        MCH3   0.0000   0.0000  A  0.00000e+00  0.00000e+00
MNH3         0      0.0000   0.0000  A  0.00000e+00  0.00000e+00
sMNH3        MNH3   0.0000   0.0000  A  0.00000e+00  0.00000e+00
c3           c3     0.00000  0.00000  A  3.39967e-01  4.57730e-01
sc3          c3     0.00000  0.00000  A  3.39967e-01  7.29333e-02
hc           hc     0.00000  0.00000  A  2.64953e-01  6.56888e-02
shc          hc     0.00000  0.00000  A  2.64953e-01  1.04667e-02
c            c      0.00000  0.00000  A  3.39967e-01  3.59824e-01
sc           c      0.00000  0.00000  A  3.39967e-01  5.73333e-02
o            o      0.00000  0.00000  A  2.95992e-01  8.78640e-01
so           o      0.00000  0.00000  A  2.95992e-01  1.40000e-01
n            n      0.00000  0.00000  A  3.25000e-01  7.11280e-01
sn           n      0.00000  0.00000  A  3.25000e-01  1.13333e-01
h1           h1     0.00000  0.00000  A  2.47135e-01  6.56888e-02
sh1          h1     0.00000  0.00000  A  2.47135e-01  1.04667e-02
ca           ca     0.00000  0.00000  A  3.39967e-01  3.59824e-01
sca          ca     0.00000  0.00000  A  3.39967e-01  5.73333e-02
ha           ha     0.00000  0.00000  A  2.59964e-01  6.27600e-02
sha          ha     0.00000  0.00000  A  2.59964e-01  1.00000e-02
sy           sy     0.00000  0.00000  A  3.56359e-01  1.04600e+00
ssy          sy     0.00000  0.00000  A  3.56359e-01  1.66667e-01
n3           n3     0.00000  0.00000  A  3.25000e-01  7.11280e-01
sn3          n3     0.00000  0.00000  A  3.25000e-01  1.13333e-01
hx           hx     0.00000  0.00000  A  1.95998e-01  6.56888e-02
shx          hx     0.00000  0.00000  A  1.95998e-01  1.04667e-02
n4           n4     0.00000  0.00000  A  3.25000e-01  7.11280e-01
sn4          n4     0.00000  0.00000  A  3.25000e-01  1.13333e-01
hn           hn     0.00000  0.00000  A  1.06908e-01  6.56888e-02
shn          hn     0.00000  0.00000  A  1.06908e-01  1.04667e-02

[ nonbond_params ]
  OB   HB     1      0.150   1.2552
  sOB  sHB     1      0.150   0.8368
  sBr   Br   1       0.0000   0.0000
  sBr    C   1       0.1700   0.0000
  sBr   C6   1       0.1700   0.0000
  sBr   C5   1       0.1700   0.0000
  sBr   CA   1       0.1700   0.0000
  sBr   CB   1       0.1700   0.0000
  sBr   CC   1       0.1700   0.0000
  sBr   CK   1       0.1700   0.0000
  sBr   CM   1       0.1700   0.0000
  sBr   CN   1       0.1700   0.0000
  sBr   CQ   1       0.1700   0.0000
  sBr   CR   1       0.1700   0.0000
  sBr   CT   1       0.1700   0.0000
  sBr   C1   1       0.1700   0.0000
  sBr   C3   1       0.1700   0.0000
  sBr   C4   1       0.1700   0.0000
  sBr   C7   1       0.1700   0.0000
  sBr   C8   1       0.1700   0.0000
  sBr   C9   1       0.1700   0.0000
  sBr   CV   1       0.1700   0.0000
  sBr   CW   1       0.1700   0.0000
  sBr   C*   1       0.1700   0.0000
  sBr   C0   1       0.1526   0.0000
  sBr    F   1       0.1559   0.0000
  sBr    H   1       0.0535   0.0000
  sBr   HB   1       0.0535   0.0000
  sBr   HC   1       0.1325   0.0000
  sBr   H1   1       0.1236   0.0000
  sBr   H2   1       0.1147   0.0000
  sBr   H3   1       0.1057   0.0000
  sBr   HA   1       0.1300   0.0000
  sBr   H4   1       0.1255   0.0000
  sBr   H5   1       0.1211   0.0000
  sBr   HO   1       0.0000   0.0000
  sBr   HS   1       0.0535   0.0000
  sBr   HW   1       0.0000   0.0000
  sBr   HP   1       0.0980   0.0000
  sBr    I   1       0.2094   0.0000
  sBr   Cl   1       0.2201   0.0000
  sBr   Na   1       0.1664   0.0000
  sBr   IB   1       0.4454   0.0000
  sBr   MG   1       0.0706   0.0000
  sBr    N   1       0.1625   0.0000
  sBr   NA   1       0.1625   0.0000
  sBr   NB   1       0.1625   0.0000
  sBr   NC   1       0.1625   0.0000
  sBr   N2   1       0.1625   0.0000
  sBr   N3   1       0.1625   0.0000
  sBr   N*   1       0.1625   0.0000
  sBr    O   1       0.1480   0.0000
  sBr   OB   1       0.1480   0.0000
  sBr   OW   1       0.1575   0.0000
  sBr   OH   1       0.1533   0.0000
  sBr   O3   1       0.1533   0.0000
  sBr   OS   1       0.1500   0.0000
  sBr   O2   1       0.1480   0.0000
  sBr    P   1       0.1871   0.0000
  sBr    S   1       0.1782   0.0000
  sBr   SH   1       0.1782   0.0000
  sBr   CU   1       0.1700   0.0000
  sBr   FE   1       0.0000   0.0000
  sBr    K   1       0.2368   0.0000
  sBr   Rb   1       0.2633   0.0000
  sBr   Li   1       0.1013   0.0000
  sBr   Zn   1       0.0980   0.0000
  sBr HW_tip4pew   1       0.0000   0.0000
  sBr OW_tip4pew   1       0.1582   0.0000
  sBr HW_tip4p   1       0.0000   0.0000
  sBr OW_tip4p   1       0.1577   0.0000
  sBr HW_tip5p   1       0.0000   0.0000
  sBr OW_tip5p   1       0.1560   0.0000
  sBr HW_tip4pd   1       0.0000   0.0000
  sBr OW_tip4pd   1       0.1583   0.0000
  sBr   MW   1       0.0000   0.0000
  sBr MCH3   1       0.0000   0.0000
  sBr MNH3   1       0.0000   0.0000
  sBr   c3   1       0.1700   0.0000
  sBr   hc   1       0.1325   0.0000
  sBr    c   1       0.1700   0.0000
  sBr    o   1       0.1480   0.0000
  sBr    n   1       0.1625   0.0000
  sBr   h1   1       0.1236   0.0000
  sBr   ca   1       0.1700   0.0000
  sBr   ha   1       0.1300   0.0000
  sBr   n3   1       0.1625   0.0000
  sBr   hx   1       0.0980   0.0000
  sBr   n4   1       0.1625   0.0000
  sBr   hn   1       0.0535   0.0000
   sC   Br   1       0.1700   0.0000
   sC    C   1       0.3400   0.2507
   sC   C6   1       0.3400   0.2507
   sC   C5   1       0.3400   0.2507
   sC   CA   1       0.3400   0.2507
   sC   CB   1       0.3400   0.2507
   sC   CC   1       0.3400   0.2507
   sC   CK   1       0.3400   0.2507
   sC   CM   1       0.3400   0.2507
   sC   CN   1       0.3400   0.2507
   sC   CQ   1       0.3400   0.2507
   sC   CR   1       0.3400   0.2507
   sC   CT   1       0.3400   0.2827
   sC   C1   1       0.3400   0.2827
   sC   C3   1       0.3400   0.2827
   sC   C4   1       0.3400   0.2827
   sC   C7   1       0.3400   0.2827
   sC   C8   1       0.3400   0.2827
   sC   C9   1       0.3400   0.2827
   sC   CV   1       0.3400   0.2507
   sC   CW   1       0.3400   0.2507
   sC   C*   1       0.3400   0.2507
   sC   C0   1       0.3226   0.5796
   sC    F   1       0.3259   0.2111
   sC    H   1       0.2234   0.1071
   sC   HB   1       0.2234   0.1071
   sC   HC   1       0.3025   0.1071
   sC   H1   1       0.2936   0.1071
   sC   H2   1       0.2846   0.1071
   sC   H3   1       0.2757   0.1071
   sC   HA   1       0.3000   0.1047
   sC   H4   1       0.2955   0.1047
   sC   H5   1       0.2911   0.1047
   sC   HO   1       0.1700   0.0000
   sC   HS   1       0.2234   0.1071
   sC   HW   1       0.1700   0.0000
   sC   HP   1       0.2680   0.1071
   sC    I   1       0.3793   0.5406
   sC   Cl   1       0.3900   0.2703
   sC   Na   1       0.3364   0.0450
   sC   IB   1       0.6154   0.2703
   sC   MG   1       0.2406   0.8085
   sC    N   1       0.3325   0.3524
   sC   NA   1       0.3325   0.3524
   sC   NB   1       0.3325   0.3524
   sC   NC   1       0.3325   0.3524
   sC   N2   1       0.3325   0.3524
   sC   N3   1       0.3325   0.3524
   sC   N*   1       0.3325   0.3524
   sC    O   1       0.3180   0.3917
   sC   OB   1       0.3180   0.3917
   sC   OW   1       0.3275   0.3334
   sC   OH   1       0.3233   0.3921
   sC   O3   1       0.3233   0.3921
   sC   OS   1       0.3200   0.3524
   sC   O2   1       0.3180   0.3917
   sC    P   1       0.3571   0.3823
   sC    S   1       0.3482   0.4274
   sC   SH   1       0.3482   0.4274
   sC   CU   1       0.3400   0.2507
   sC   FE   1       0.1700   0.0000
   sC    K   1       0.4068   0.0155
   sC   Rb   1       0.4333   0.0111
   sC   Li   1       0.2713   0.1156
   sC   Zn   1       0.2680   0.0956
   sC HW_tip4pew   1       0.1700   0.0000
   sC OW_tip4pew   1       0.3282   0.3448
   sC HW_tip4p   1       0.1700   0.0000
   sC OW_tip4p   1       0.3277   0.3365
   sC HW_tip5p   1       0.1700   0.0000
   sC OW_tip5p   1       0.3260   0.3419
   sC HW_tip4pd   1       0.1700   0.0000
   sC OW_tip4pd   1       0.3282   0.4177
   sC   MW   1       0.1700   0.0000
   sC MCH3   1       0.1700   0.0000
   sC MNH3   1       0.1700   0.0000
   sC   c3   1       0.3400   0.2827
   sC   hc   1       0.3025   0.1071
   sC    c   1       0.3400   0.2507
   sC    o   1       0.3180   0.3917
   sC    n   1       0.3325   0.3524
   sC   h1   1       0.2936   0.1071
   sC   ca   1       0.3400   0.2507
   sC   ha   1       0.3000   0.1047
   sC   n3   1       0.3325   0.3524
   sC   hx   1       0.2680   0.1071
   sC   n4   1       0.3325   0.3524
   sC   hn   1       0.2234   0.1071
  sC6   Br   1       0.1700   0.0000
  sC6    C   1       0.3400   0.2507
  sC6   C6   1       0.3400   0.2507
  sC6   C5   1       0.3400   0.2507
  sC6   CA   1       0.3400   0.2507
  sC6   CB   1       0.3400   0.2507
  sC6   CC   1       0.3400   0.2507
  sC6   CK   1       0.3400   0.2507
  sC6   CM   1       0.3400   0.2507
  sC6   CN   1       0.3400   0.2507
  sC6   CQ   1       0.3400   0.2507
  sC6   CR   1       0.3400   0.2507
  sC6   CT   1       0.3400   0.2827
  sC6   C1   1       0.3400   0.2827
  sC6   C3   1       0.3400   0.2827
  sC6   C4   1       0.3400   0.2827
  sC6   C7   1       0.3400   0.2827
  sC6   C8   1       0.3400   0.2827
  sC6   C9   1       0.3400   0.2827
  sC6   CV   1       0.3400   0.2507
  sC6   CW   1       0.3400   0.2507
  sC6   C*   1       0.3400   0.2507
  sC6   C0   1       0.3226   0.5796
  sC6    F   1       0.3259   0.2111
  sC6    H   1       0.2234   0.1071
  sC6   HB   1       0.2234   0.1071
  sC6   HC   1       0.3025   0.1071
  sC6   H1   1       0.2936   0.1071
  sC6   H2   1       0.2846   0.1071
  sC6   H3   1       0.2757   0.1071
  sC6   HA   1       0.3000   0.1047
  sC6   H4   1       0.2955   0.1047
  sC6   H5   1       0.2911   0.1047
  sC6   HO   1       0.1700   0.0000
  sC6   HS   1       0.2234   0.1071
  sC6   HW   1       0.1700   0.0000
  sC6   HP   1       0.2680   0.1071
  sC6    I   1       0.3793   0.5406
  sC6   Cl   1       0.3900   0.2703
  sC6   Na   1       0.3364   0.0450
  sC6   IB   1       0.6154   0.2703
  sC6   MG   1       0.2406   0.8085
  sC6    N   1       0.3325   0.3524
  sC6   NA   1       0.3325   0.3524
  sC6   NB   1       0.3325   0.3524
  sC6   NC   1       0.3325   0.3524
  sC6   N2   1       0.3325   0.3524
  sC6   N3   1       0.3325   0.3524
  sC6   N*   1       0.3325   0.3524
  sC6    O   1       0.3180   0.3917
  sC6   OB   1       0.3180   0.3917
  sC6   OW   1       0.3275   0.3334
  sC6   OH   1       0.3233   0.3921
  sC6   O3   1       0.3233   0.3921
  sC6   OS   1       0.3200   0.3524
  sC6   O2   1       0.3180   0.3917
  sC6    P   1       0.3571   0.3823
  sC6    S   1       0.3482   0.4274
  sC6   SH   1       0.3482   0.4274
  sC6   CU   1       0.3400   0.2507
  sC6   FE   1       0.1700   0.0000
  sC6    K   1       0.4068   0.0155
  sC6   Rb   1       0.4333   0.0111
  sC6   Li   1       0.2713   0.1156
  sC6   Zn   1       0.2680   0.0956
  sC6 HW_tip4pew   1       0.1700   0.0000
  sC6 OW_tip4pew   1       0.3282   0.3448
  sC6 HW_tip4p   1       0.1700   0.0000
  sC6 OW_tip4p   1       0.3277   0.3365
  sC6 HW_tip5p   1       0.1700   0.0000
  sC6 OW_tip5p   1       0.3260   0.3419
  sC6 HW_tip4pd   1       0.1700   0.0000
  sC6 OW_tip4pd   1       0.3282   0.4177
  sC6   MW   1       0.1700   0.0000
  sC6 MCH3   1       0.1700   0.0000
  sC6 MNH3   1       0.1700   0.0000
  sC6   c3   1       0.3400   0.2827
  sC6   hc   1       0.3025   0.1071
  sC6    c   1       0.3400   0.2507
  sC6    o   1       0.3180   0.3917
  sC6    n   1       0.3325   0.3524
  sC6   h1   1       0.2936   0.1071
  sC6   ca   1       0.3400   0.2507
  sC6   ha   1       0.3000   0.1047
  sC6   n3   1       0.3325   0.3524
  sC6   hx   1       0.2680   0.1071
  sC6   n4   1       0.3325   0.3524
  sC6   hn   1       0.2234   0.1071
  sC5   Br   1       0.1700   0.0000
  sC5    C   1       0.3400   0.2507
  sC5   C6   1       0.3400   0.2507
  sC5   C5   1       0.3400   0.2507
  sC5   CA   1       0.3400   0.2507
  sC5   CB   1       0.3400   0.2507
  sC5   CC   1       0.3400   0.2507
  sC5   CK   1       0.3400   0.2507
  sC5   CM   1       0.3400   0.2507
  sC5   CN   1       0.3400   0.2507
  sC5   CQ   1       0.3400   0.2507
  sC5   CR   1       0.3400   0.2507
  sC5   CT   1       0.3400   0.2827
  sC5   C1   1       0.3400   0.2827
  sC5   C3   1       0.3400   0.2827
  sC5   C4   1       0.3400   0.2827
  sC5   C7   1       0.3400   0.2827
  sC5   C8   1       0.3400   0.2827
  sC5   C9   1       0.3400   0.2827
  sC5   CV   1       0.3400   0.2507
  sC5   CW   1       0.3400   0.2507
  sC5   C*   1       0.3400   0.2507
  sC5   C0   1       0.3226   0.5796
  sC5    F   1       0.3259   0.2111
  sC5    H   1       0.2234   0.1071
  sC5   HB   1       0.2234   0.1071
  sC5   HC   1       0.3025   0.1071
  sC5   H1   1       0.2936   0.1071
  sC5   H2   1       0.2846   0.1071
  sC5   H3   1       0.2757   0.1071
  sC5   HA   1       0.3000   0.1047
  sC5   H4   1       0.2955   0.1047
  sC5   H5   1       0.2911   0.1047
  sC5   HO   1       0.1700   0.0000
  sC5   HS   1       0.2234   0.1071
  sC5   HW   1       0.1700   0.0000
  sC5   HP   1       0.2680   0.1071
  sC5    I   1       0.3793   0.5406
  sC5   Cl   1       0.3900   0.2703
  sC5   Na   1       0.3364   0.0450
  sC5   IB   1       0.6154   0.2703
  sC5   MG   1       0.2406   0.8085
  sC5    N   1       0.3325   0.3524
  sC5   NA   1       0.3325   0.3524
  sC5   NB   1       0.3325   0.3524
  sC5   NC   1       0.3325   0.3524
  sC5   N2   1       0.3325   0.3524
  sC5   N3   1       0.3325   0.3524
  sC5   N*   1       0.3325   0.3524
  sC5    O   1       0.3180   0.3917
  sC5   OB   1       0.3180   0.3917
  sC5   OW   1       0.3275   0.3334
  sC5   OH   1       0.3233   0.3921
  sC5   O3   1       0.3233   0.3921
  sC5   OS   1       0.3200   0.3524
  sC5   O2   1       0.3180   0.3917
  sC5    P   1       0.3571   0.3823
  sC5    S   1       0.3482   0.4274
  sC5   SH   1       0.3482   0.4274
  sC5   CU   1       0.3400   0.2507
  sC5   FE   1       0.1700   0.0000
  sC5    K   1       0.4068   0.0155
  sC5   Rb   1       0.4333   0.0111
  sC5   Li   1       0.2713   0.1156
  sC5   Zn   1       0.2680   0.0956
  sC5 HW_tip4pew   1       0.1700   0.0000
  sC5 OW_tip4pew   1       0.3282   0.3448
  sC5 HW_tip4p   1       0.1700   0.0000
  sC5 OW_tip4p   1       0.3277   0.3365
  sC5 HW_tip5p   1       0.1700   0.0000
  sC5 OW_tip5p   1       0.3260   0.3419
  sC5 HW_tip4pd   1       0.1700   0.0000
  sC5 OW_tip4pd   1       0.3282   0.4177
  sC5   MW   1       0.1700   0.0000
  sC5 MCH3   1       0.1700   0.0000
  sC5 MNH3   1       0.1700   0.0000
  sC5   c3   1       0.3400   0.2827
  sC5   hc   1       0.3025   0.1071
  sC5    c   1       0.3400   0.2507
  sC5    o   1       0.3180   0.3917
  sC5    n   1       0.3325   0.3524
  sC5   h1   1       0.2936   0.1071
  sC5   ca   1       0.3400   0.2507
  sC5   ha   1       0.3000   0.1047
  sC5   n3   1       0.3325   0.3524
  sC5   hx   1       0.2680   0.1071
  sC5   n4   1       0.3325   0.3524
  sC5   hn   1       0.2234   0.1071
  sCA   Br   1       0.1700   0.0000
  sCA    C   1       0.3400   0.2507
  sCA   C6   1       0.3400   0.2507
  sCA   C5   1       0.3400   0.2507
  sCA   CA   1       0.3400   0.2507
  sCA   CB   1       0.3400   0.2507
  sCA   CC   1       0.3400   0.2507
  sCA   CK   1       0.3400   0.2507
  sCA   CM   1       0.3400   0.2507
  sCA   CN   1       0.3400   0.2507
  sCA   CQ   1       0.3400   0.2507
  sCA   CR   1       0.3400   0.2507
  sCA   CT   1       0.3400   0.2827
  sCA   C1   1       0.3400   0.2827
  sCA   C3   1       0.3400   0.2827
  sCA   C4   1       0.3400   0.2827
  sCA   C7   1       0.3400   0.2827
  sCA   C8   1       0.3400   0.2827
  sCA   C9   1       0.3400   0.2827
  sCA   CV   1       0.3400   0.2507
  sCA   CW   1       0.3400   0.2507
  sCA   C*   1       0.3400   0.2507
  sCA   C0   1       0.3226   0.5796
  sCA    F   1       0.3259   0.2111
  sCA    H   1       0.2234   0.1071
  sCA   HB   1       0.2234   0.1071
  sCA   HC   1       0.3025   0.1071
  sCA   H1   1       0.2936   0.1071
  sCA   H2   1       0.2846   0.1071
  sCA   H3   1       0.2757   0.1071
  sCA   HA   1       0.3000   0.1047
  sCA   H4   1       0.2955   0.1047
  sCA   H5   1       0.2911   0.1047
  sCA   HO   1       0.1700   0.0000
  sCA   HS   1       0.2234   0.1071
  sCA   HW   1       0.1700   0.0000
  sCA   HP   1       0.2680   0.1071
  sCA    I   1       0.3793   0.5406
  sCA   Cl   1       0.3900   0.2703
  sCA   Na   1       0.3364   0.0450
  sCA   IB   1       0.6154   0.2703
  sCA   MG   1       0.2406   0.8085
  sCA    N   1       0.3325   0.3524
  sCA   NA   1       0.3325   0.3524
  sCA   NB   1       0.3325   0.3524
  sCA   NC   1       0.3325   0.3524
  sCA   N2   1       0.3325   0.3524
  sCA   N3   1       0.3325   0.3524
  sCA   N*   1       0.3325   0.3524
  sCA    O   1       0.3180   0.3917
  sCA   OB   1       0.3180   0.3917
  sCA   OW   1       0.3275   0.3334
  sCA   OH   1       0.3233   0.3921
  sCA   O3   1       0.3233   0.3921
  sCA   OS   1       0.3200   0.3524
  sCA   O2   1       0.3180   0.3917
  sCA    P   1       0.3571   0.3823
  sCA    S   1       0.3482   0.4274
  sCA   SH   1       0.3482   0.4274
  sCA   CU   1       0.3400   0.2507
  sCA   FE   1       0.1700   0.0000
  sCA    K   1       0.4068   0.0155
  sCA   Rb   1       0.4333   0.0111
  sCA   Li   1       0.2713   0.1156
  sCA   Zn   1       0.2680   0.0956
  sCA HW_tip4pew   1       0.1700   0.0000
  sCA OW_tip4pew   1       0.3282   0.3448
  sCA HW_tip4p   1       0.1700   0.0000
  sCA OW_tip4p   1       0.3277   0.3365
  sCA HW_tip5p   1       0.1700   0.0000
  sCA OW_tip5p   1       0.3260   0.3419
  sCA HW_tip4pd   1       0.1700   0.0000
  sCA OW_tip4pd   1       0.3282   0.4177
  sCA   MW   1       0.1700   0.0000
  sCA MCH3   1       0.1700   0.0000
  sCA MNH3   1       0.1700   0.0000
  sCA   c3   1       0.3400   0.2827
  sCA   hc   1       0.3025   0.1071
  sCA    c   1       0.3400   0.2507
  sCA    o   1       0.3180   0.3917
  sCA    n   1       0.3325   0.3524
  sCA   h1   1       0.2936   0.1071
  sCA   ca   1       0.3400   0.2507
  sCA   ha   1       0.3000   0.1047
  sCA   n3   1       0.3325   0.3524
  sCA   hx   1       0.2680   0.1071
  sCA   n4   1       0.3325   0.3524
  sCA   hn   1       0.2234   0.1071
  sCB   Br   1       0.1700   0.0000
  sCB    C   1       0.3400   0.2507
  sCB   C6   1       0.3400   0.2507
  sCB   C5   1       0.3400   0.2507
  sCB   CA   1       0.3400   0.2507
  sCB   CB   1       0.3400   0.2507
  sCB   CC   1       0.3400   0.2507
  sCB   CK   1       0.3400   0.2507
  sCB   CM   1       0.3400   0.2507
  sCB   CN   1       0.3400   0.2507
  sCB   CQ   1       0.3400   0.2507
  sCB   CR   1       0.3400   0.2507
  sCB   CT   1       0.3400   0.2827
  sCB   C1   1       0.3400   0.2827
  sCB   C3   1       0.3400   0.2827
  sCB   C4   1       0.3400   0.2827
  sCB   C7   1       0.3400   0.2827
  sCB   C8   1       0.3400   0.2827
  sCB   C9   1       0.3400   0.2827
  sCB   CV   1       0.3400   0.2507
  sCB   CW   1       0.3400   0.2507
  sCB   C*   1       0.3400   0.2507
  sCB   C0   1       0.3226   0.5796
  sCB    F   1       0.3259   0.2111
  sCB    H   1       0.2234   0.1071
  sCB   HB   1       0.2234   0.1071
  sCB   HC   1       0.3025   0.1071
  sCB   H1   1       0.2936   0.1071
  sCB   H2   1       0.2846   0.1071
  sCB   H3   1       0.2757   0.1071
  sCB   HA   1       0.3000   0.1047
  sCB   H4   1       0.2955   0.1047
  sCB   H5   1       0.2911   0.1047
  sCB   HO   1       0.1700   0.0000
  sCB   HS   1       0.2234   0.1071
  sCB   HW   1       0.1700   0.0000
  sCB   HP   1       0.2680   0.1071
  sCB    I   1       0.3793   0.5406
  sCB   Cl   1       0.3900   0.2703
  sCB   Na   1       0.3364   0.0450
  sCB   IB   1       0.6154   0.2703
  sCB   MG   1       0.2406   0.8085
  sCB    N   1       0.3325   0.3524
  sCB   NA   1       0.3325   0.3524
  sCB   NB   1       0.3325   0.3524
  sCB   NC   1       0.3325   0.3524
  sCB   N2   1       0.3325   0.3524
  sCB   N3   1       0.3325   0.3524
  sCB   N*   1       0.3325   0.3524
  sCB    O   1       0.3180   0.3917
  sCB   OB   1       0.3180   0.3917
  sCB   OW   1       0.3275   0.3334
  sCB   OH   1       0.3233   0.3921
  sCB   O3   1       0.3233   0.3921
  sCB   OS   1       0.3200   0.3524
  sCB   O2   1       0.3180   0.3917
  sCB    P   1       0.3571   0.3823
  sCB    S   1       0.3482   0.4274
  sCB   SH   1       0.3482   0.4274
  sCB   CU   1       0.3400   0.2507
  sCB   FE   1       0.1700   0.0000
  sCB    K   1       0.4068   0.0155
  sCB   Rb   1       0.4333   0.0111
  sCB   Li   1       0.2713   0.1156
  sCB   Zn   1       0.2680   0.0956
  sCB HW_tip4pew   1       0.1700   0.0000
  sCB OW_tip4pew   1       0.3282   0.3448
  sCB HW_tip4p   1       0.1700   0.0000
  sCB OW_tip4p   1       0.3277   0.3365
  sCB HW_tip5p   1       0.1700   0.0000
  sCB OW_tip5p   1       0.3260   0.3419
  sCB HW_tip4pd   1       0.1700   0.0000
  sCB OW_tip4pd   1       0.3282   0.4177
  sCB   MW   1       0.1700   0.0000
  sCB MCH3   1       0.1700   0.0000
  sCB MNH3   1       0.1700   0.0000
  sCB   c3   1       0.3400   0.2827
  sCB   hc   1       0.3025   0.1071
  sCB    c   1       0.3400   0.2507
  sCB    o   1       0.3180   0.3917
  sCB    n   1       0.3325   0.3524
  sCB   h1   1       0.2936   0.1071
  sCB   ca   1       0.3400   0.2507
  sCB   ha   1       0.3000   0.1047
  sCB   n3   1       0.3325   0.3524
  sCB   hx   1       0.2680   0.1071
  sCB   n4   1       0.3325   0.3524
  sCB   hn   1       0.2234   0.1071
  sCC   Br   1       0.1700   0.0000
  sCC    C   1       0.3400   0.2507
  sCC   C6   1       0.3400   0.2507
  sCC   C5   1       0.3400   0.2507
  sCC   CA   1       0.3400   0.2507
  sCC   CB   1       0.3400   0.2507
  sCC   CC   1       0.3400   0.2507
  sCC   CK   1       0.3400   0.2507
  sCC   CM   1       0.3400   0.2507
  sCC   CN   1       0.3400   0.2507
  sCC   CQ   1       0.3400   0.2507
  sCC   CR   1       0.3400   0.2507
  sCC   CT   1       0.3400   0.2827
  sCC   C1   1       0.3400   0.2827
  sCC   C3   1       0.3400   0.2827
  sCC   C4   1       0.3400   0.2827
  sCC   C7   1       0.3400   0.2827
  sCC   C8   1       0.3400   0.2827
  sCC   C9   1       0.3400   0.2827
  sCC   CV   1       0.3400   0.2507
  sCC   CW   1       0.3400   0.2507
  sCC   C*   1       0.3400   0.2507
  sCC   C0   1       0.3226   0.5796
  sCC    F   1       0.3259   0.2111
  sCC    H   1       0.2234   0.1071
  sCC   HB   1       0.2234   0.1071
  sCC   HC   1       0.3025   0.1071
  sCC   H1   1       0.2936   0.1071
  sCC   H2   1       0.2846   0.1071
  sCC   H3   1       0.2757   0.1071
  sCC   HA   1       0.3000   0.1047
  sCC   H4   1       0.2955   0.1047
  sCC   H5   1       0.2911   0.1047
  sCC   HO   1       0.1700   0.0000
  sCC   HS   1       0.2234   0.1071
  sCC   HW   1       0.1700   0.0000
  sCC   HP   1       0.2680   0.1071
  sCC    I   1       0.3793   0.5406
  sCC   Cl   1       0.3900   0.2703
  sCC   Na   1       0.3364   0.0450
  sCC   IB   1       0.6154   0.2703
  sCC   MG   1       0.2406   0.8085
  sCC    N   1       0.3325   0.3524
  sCC   NA   1       0.3325   0.3524
  sCC   NB   1       0.3325   0.3524
  sCC   NC   1       0.3325   0.3524
  sCC   N2   1       0.3325   0.3524
  sCC   N3   1       0.3325   0.3524
  sCC   N*   1       0.3325   0.3524
  sCC    O   1       0.3180   0.3917
  sCC   OB   1       0.3180   0.3917
  sCC   OW   1       0.3275   0.3334
  sCC   OH   1       0.3233   0.3921
  sCC   O3   1       0.3233   0.3921
  sCC   OS   1       0.3200   0.3524
  sCC   O2   1       0.3180   0.3917
  sCC    P   1       0.3571   0.3823
  sCC    S   1       0.3482   0.4274
  sCC   SH   1       0.3482   0.4274
  sCC   CU   1       0.3400   0.2507
  sCC   FE   1       0.1700   0.0000
  sCC    K   1       0.4068   0.0155
  sCC   Rb   1       0.4333   0.0111
  sCC   Li   1       0.2713   0.1156
  sCC   Zn   1       0.2680   0.0956
  sCC HW_tip4pew   1       0.1700   0.0000
  sCC OW_tip4pew   1       0.3282   0.3448
  sCC HW_tip4p   1       0.1700   0.0000
  sCC OW_tip4p   1       0.3277   0.3365
  sCC HW_tip5p   1       0.1700   0.0000
  sCC OW_tip5p   1       0.3260   0.3419
  sCC HW_tip4pd   1       0.1700   0.0000
  sCC OW_tip4pd   1       0.3282   0.4177
  sCC   MW   1       0.1700   0.0000
  sCC MCH3   1       0.1700   0.0000
  sCC MNH3   1       0.1700   0.0000
  sCC   c3   1       0.3400   0.2827
  sCC   hc   1       0.3025   0.1071
  sCC    c   1       0.3400   0.2507
  sCC    o   1       0.3180   0.3917
  sCC    n   1       0.3325   0.3524
  sCC   h1   1       0.2936   0.1071
  sCC   ca   1       0.3400   0.2507
  sCC   ha   1       0.3000   0.1047
  sCC   n3   1       0.3325   0.3524
  sCC   hx   1       0.2680   0.1071
  sCC   n4   1       0.3325   0.3524
  sCC   hn   1       0.2234   0.1071
  sCK   Br   1       0.1700   0.0000
  sCK    C   1       0.3400   0.2507
  sCK   C6   1       0.3400   0.2507
  sCK   C5   1       0.3400   0.2507
  sCK   CA   1       0.3400   0.2507
  sCK   CB   1       0.3400   0.2507
  sCK   CC   1       0.3400   0.2507
  sCK   CK   1       0.3400   0.2507
  sCK   CM   1       0.3400   0.2507
  sCK   CN   1       0.3400   0.2507
  sCK   CQ   1       0.3400   0.2507
  sCK   CR   1       0.3400   0.2507
  sCK   CT   1       0.3400   0.2827
  sCK   C1   1       0.3400   0.2827
  sCK   C3   1       0.3400   0.2827
  sCK   C4   1       0.3400   0.2827
  sCK   C7   1       0.3400   0.2827
  sCK   C8   1       0.3400   0.2827
  sCK   C9   1       0.3400   0.2827
  sCK   CV   1       0.3400   0.2507
  sCK   CW   1       0.3400   0.2507
  sCK   C*   1       0.3400   0.2507
  sCK   C0   1       0.3226   0.5796
  sCK    F   1       0.3259   0.2111
  sCK    H   1       0.2234   0.1071
  sCK   HB   1       0.2234   0.1071
  sCK   HC   1       0.3025   0.1071
  sCK   H1   1       0.2936   0.1071
  sCK   H2   1       0.2846   0.1071
  sCK   H3   1       0.2757   0.1071
  sCK   HA   1       0.3000   0.1047
  sCK   H4   1       0.2955   0.1047
  sCK   H5   1       0.2911   0.1047
  sCK   HO   1       0.1700   0.0000
  sCK   HS   1       0.2234   0.1071
  sCK   HW   1       0.1700   0.0000
  sCK   HP   1       0.2680   0.1071
  sCK    I   1       0.3793   0.5406
  sCK   Cl   1       0.3900   0.2703
  sCK   Na   1       0.3364   0.0450
  sCK   IB   1       0.6154   0.2703
  sCK   MG   1       0.2406   0.8085
  sCK    N   1       0.3325   0.3524
  sCK   NA   1       0.3325   0.3524
  sCK   NB   1       0.3325   0.3524
  sCK   NC   1       0.3325   0.3524
  sCK   N2   1       0.3325   0.3524
  sCK   N3   1       0.3325   0.3524
  sCK   N*   1       0.3325   0.3524
  sCK    O   1       0.3180   0.3917
  sCK   OB   1       0.3180   0.3917
  sCK   OW   1       0.3275   0.3334
  sCK   OH   1       0.3233   0.3921
  sCK   O3   1       0.3233   0.3921
  sCK   OS   1       0.3200   0.3524
  sCK   O2   1       0.3180   0.3917
  sCK    P   1       0.3571   0.3823
  sCK    S   1       0.3482   0.4274
  sCK   SH   1       0.3482   0.4274
  sCK   CU   1       0.3400   0.2507
  sCK   FE   1       0.1700   0.0000
  sCK    K   1       0.4068   0.0155
  sCK   Rb   1       0.4333   0.0111
  sCK   Li   1       0.2713   0.1156
  sCK   Zn   1       0.2680   0.0956
  sCK HW_tip4pew   1       0.1700   0.0000
  sCK OW_tip4pew   1       0.3282   0.3448
  sCK HW_tip4p   1       0.1700   0.0000
  sCK OW_tip4p   1       0.3277   0.3365
  sCK HW_tip5p   1       0.1700   0.0000
  sCK OW_tip5p   1       0.3260   0.3419
  sCK HW_tip4pd   1       0.1700   0.0000
  sCK OW_tip4pd   1       0.3282   0.4177
  sCK   MW   1       0.1700   0.0000
  sCK MCH3   1       0.1700   0.0000
  sCK MNH3   1       0.1700   0.0000
  sCK   c3   1       0.3400   0.2827
  sCK   hc   1       0.3025   0.1071
  sCK    c   1       0.3400   0.2507
  sCK    o   1       0.3180   0.3917
  sCK    n   1       0.3325   0.3524
  sCK   h1   1       0.2936   0.1071
  sCK   ca   1       0.3400   0.2507
  sCK   ha   1       0.3000   0.1047
  sCK   n3   1       0.3325   0.3524
  sCK   hx   1       0.2680   0.1071
  sCK   n4   1       0.3325   0.3524
  sCK   hn   1       0.2234   0.1071
  sCM   Br   1       0.1700   0.0000
  sCM    C   1       0.3400   0.2507
  sCM   C6   1       0.3400   0.2507
  sCM   C5   1       0.3400   0.2507
  sCM   CA   1       0.3400   0.2507
  sCM   CB   1       0.3400   0.2507
  sCM   CC   1       0.3400   0.2507
  sCM   CK   1       0.3400   0.2507
  sCM   CM   1       0.3400   0.2507
  sCM   CN   1       0.3400   0.2507
  sCM   CQ   1       0.3400   0.2507
  sCM   CR   1       0.3400   0.2507
  sCM   CT   1       0.3400   0.2827
  sCM   C1   1       0.3400   0.2827
  sCM   C3   1       0.3400   0.2827
  sCM   C4   1       0.3400   0.2827
  sCM   C7   1       0.3400   0.2827
  sCM   C8   1       0.3400   0.2827
  sCM   C9   1       0.3400   0.2827
  sCM   CV   1       0.3400   0.2507
  sCM   CW   1       0.3400   0.2507
  sCM   C*   1       0.3400   0.2507
  sCM   C0   1       0.3226   0.5796
  sCM    F   1       0.3259   0.2111
  sCM    H   1       0.2234   0.1071
  sCM   HB   1       0.2234   0.1071
  sCM   HC   1       0.3025   0.1071
  sCM   H1   1       0.2936   0.1071
  sCM   H2   1       0.2846   0.1071
  sCM   H3   1       0.2757   0.1071
  sCM   HA   1       0.3000   0.1047
  sCM   H4   1       0.2955   0.1047
  sCM   H5   1       0.2911   0.1047
  sCM   HO   1       0.1700   0.0000
  sCM   HS   1       0.2234   0.1071
  sCM   HW   1       0.1700   0.0000
  sCM   HP   1       0.2680   0.1071
  sCM    I   1       0.3793   0.5406
  sCM   Cl   1       0.3900   0.2703
  sCM   Na   1       0.3364   0.0450
  sCM   IB   1       0.6154   0.2703
  sCM   MG   1       0.2406   0.8085
  sCM    N   1       0.3325   0.3524
  sCM   NA   1       0.3325   0.3524
  sCM   NB   1       0.3325   0.3524
  sCM   NC   1       0.3325   0.3524
  sCM   N2   1       0.3325   0.3524
  sCM   N3   1       0.3325   0.3524
  sCM   N*   1       0.3325   0.3524
  sCM    O   1       0.3180   0.3917
  sCM   OB   1       0.3180   0.3917
  sCM   OW   1       0.3275   0.3334
  sCM   OH   1       0.3233   0.3921
  sCM   O3   1       0.3233   0.3921
  sCM   OS   1       0.3200   0.3524
  sCM   O2   1       0.3180   0.3917
  sCM    P   1       0.3571   0.3823
  sCM    S   1       0.3482   0.4274
  sCM   SH   1       0.3482   0.4274
  sCM   CU   1       0.3400   0.2507
  sCM   FE   1       0.1700   0.0000
  sCM    K   1       0.4068   0.0155
  sCM   Rb   1       0.4333   0.0111
  sCM   Li   1       0.2713   0.1156
  sCM   Zn   1       0.2680   0.0956
  sCM HW_tip4pew   1       0.1700   0.0000
  sCM OW_tip4pew   1       0.3282   0.3448
  sCM HW_tip4p   1       0.1700   0.0000
  sCM OW_tip4p   1       0.3277   0.3365
  sCM HW_tip5p   1       0.1700   0.0000
  sCM OW_tip5p   1       0.3260   0.3419
  sCM HW_tip4pd   1       0.1700   0.0000
  sCM OW_tip4pd   1       0.3282   0.4177
  sCM   MW   1       0.1700   0.0000
  sCM MCH3   1       0.1700   0.0000
  sCM MNH3   1       0.1700   0.0000
  sCM   c3   1       0.3400   0.2827
  sCM   hc   1       0.3025   0.1071
  sCM    c   1       0.3400   0.2507
  sCM    o   1       0.3180   0.3917
  sCM    n   1       0.3325   0.3524
  sCM   h1   1       0.2936   0.1071
  sCM   ca   1       0.3400   0.2507
  sCM   ha   1       0.3000   0.1047
  sCM   n3   1       0.3325   0.3524
  sCM   hx   1       0.2680   0.1071
  sCM   n4   1       0.3325   0.3524
  sCM   hn   1       0.2234   0.1071
  sCN   Br   1       0.1700   0.0000
  sCN    C   1       0.3400   0.2507
  sCN   C6   1       0.3400   0.2507
  sCN   C5   1       0.3400   0.2507
  sCN   CA   1       0.3400   0.2507
  sCN   CB   1       0.3400   0.2507
  sCN   CC   1       0.3400   0.2507
  sCN   CK   1       0.3400   0.2507
  sCN   CM   1       0.3400   0.2507
  sCN   CN   1       0.3400   0.2507
  sCN   CQ   1       0.3400   0.2507
  sCN   CR   1       0.3400   0.2507
  sCN   CT   1       0.3400   0.2827
  sCN   C1   1       0.3400   0.2827
  sCN   C3   1       0.3400   0.2827
  sCN   C4   1       0.3400   0.2827
  sCN   C7   1       0.3400   0.2827
  sCN   C8   1       0.3400   0.2827
  sCN   C9   1       0.3400   0.2827
  sCN   CV   1       0.3400   0.2507
  sCN   CW   1       0.3400   0.2507
  sCN   C*   1       0.3400   0.2507
  sCN   C0   1       0.3226   0.5796
  sCN    F   1       0.3259   0.2111
  sCN    H   1       0.2234   0.1071
  sCN   HB   1       0.2234   0.1071
  sCN   HC   1       0.3025   0.1071
  sCN   H1   1       0.2936   0.1071
  sCN   H2   1       0.2846   0.1071
  sCN   H3   1       0.2757   0.1071
  sCN   HA   1       0.3000   0.1047
  sCN   H4   1       0.2955   0.1047
  sCN   H5   1       0.2911   0.1047
  sCN   HO   1       0.1700   0.0000
  sCN   HS   1       0.2234   0.1071
  sCN   HW   1       0.1700   0.0000
  sCN   HP   1       0.2680   0.1071
  sCN    I   1       0.3793   0.5406
  sCN   Cl   1       0.3900   0.2703
  sCN   Na   1       0.3364   0.0450
  sCN   IB   1       0.6154   0.2703
  sCN   MG   1       0.2406   0.8085
  sCN    N   1       0.3325   0.3524
  sCN   NA   1       0.3325   0.3524
  sCN   NB   1       0.3325   0.3524
  sCN   NC   1       0.3325   0.3524
  sCN   N2   1       0.3325   0.3524
  sCN   N3   1       0.3325   0.3524
  sCN   N*   1       0.3325   0.3524
  sCN    O   1       0.3180   0.3917
  sCN   OB   1       0.3180   0.3917
  sCN   OW   1       0.3275   0.3334
  sCN   OH   1       0.3233   0.3921
  sCN   O3   1       0.3233   0.3921
  sCN   OS   1       0.3200   0.3524
  sCN   O2   1       0.3180   0.3917
  sCN    P   1       0.3571   0.3823
  sCN    S   1       0.3482   0.4274
  sCN   SH   1       0.3482   0.4274
  sCN   CU   1       0.3400   0.2507
  sCN   FE   1       0.1700   0.0000
  sCN    K   1       0.4068   0.0155
  sCN   Rb   1       0.4333   0.0111
  sCN   Li   1       0.2713   0.1156
  sCN   Zn   1       0.2680   0.0956
  sCN HW_tip4pew   1       0.1700   0.0000
  sCN OW_tip4pew   1       0.3282   0.3448
  sCN HW_tip4p   1       0.1700   0.0000
  sCN OW_tip4p   1       0.3277   0.3365
  sCN HW_tip5p   1       0.1700   0.0000
  sCN OW_tip5p   1       0.3260   0.3419
  sCN HW_tip4pd   1       0.1700   0.0000
  sCN OW_tip4pd   1       0.3282   0.4177
  sCN   MW   1       0.1700   0.0000
  sCN MCH3   1       0.1700   0.0000
  sCN MNH3   1       0.1700   0.0000
  sCN   c3   1       0.3400   0.2827
  sCN   hc   1       0.3025   0.1071
  sCN    c   1       0.3400   0.2507
  sCN    o   1       0.3180   0.3917
  sCN    n   1       0.3325   0.3524
  sCN   h1   1       0.2936   0.1071
  sCN   ca   1       0.3400   0.2507
  sCN   ha   1       0.3000   0.1047
  sCN   n3   1       0.3325   0.3524
  sCN   hx   1       0.2680   0.1071
  sCN   n4   1       0.3325   0.3524
  sCN   hn   1       0.2234   0.1071
  sCQ   Br   1       0.1700   0.0000
  sCQ    C   1       0.3400   0.2507
  sCQ   C6   1       0.3400   0.2507
  sCQ   C5   1       0.3400   0.2507
  sCQ   CA   1       0.3400   0.2507
  sCQ   CB   1       0.3400   0.2507
  sCQ   CC   1       0.3400   0.2507
  sCQ   CK   1       0.3400   0.2507
  sCQ   CM   1       0.3400   0.2507
  sCQ   CN   1       0.3400   0.2507
  sCQ   CQ   1       0.3400   0.2507
  sCQ   CR   1       0.3400   0.2507
  sCQ   CT   1       0.3400   0.2827
  sCQ   C1   1       0.3400   0.2827
  sCQ   C3   1       0.3400   0.2827
  sCQ   C4   1       0.3400   0.2827
  sCQ   C7   1       0.3400   0.2827
  sCQ   C8   1       0.3400   0.2827
  sCQ   C9   1       0.3400   0.2827
  sCQ   CV   1       0.3400   0.2507
  sCQ   CW   1       0.3400   0.2507
  sCQ   C*   1       0.3400   0.2507
  sCQ   C0   1       0.3226   0.5796
  sCQ    F   1       0.3259   0.2111
  sCQ    H   1       0.2234   0.1071
  sCQ   HB   1       0.2234   0.1071
  sCQ   HC   1       0.3025   0.1071
  sCQ   H1   1       0.2936   0.1071
  sCQ   H2   1       0.2846   0.1071
  sCQ   H3   1       0.2757   0.1071
  sCQ   HA   1       0.3000   0.1047
  sCQ   H4   1       0.2955   0.1047
  sCQ   H5   1       0.2911   0.1047
  sCQ   HO   1       0.1700   0.0000
  sCQ   HS   1       0.2234   0.1071
  sCQ   HW   1       0.1700   0.0000
  sCQ   HP   1       0.2680   0.1071
  sCQ    I   1       0.3793   0.5406
  sCQ   Cl   1       0.3900   0.2703
  sCQ   Na   1       0.3364   0.0450
  sCQ   IB   1       0.6154   0.2703
  sCQ   MG   1       0.2406   0.8085
  sCQ    N   1       0.3325   0.3524
  sCQ   NA   1       0.3325   0.3524
  sCQ   NB   1       0.3325   0.3524
  sCQ   NC   1       0.3325   0.3524
  sCQ   N2   1       0.3325   0.3524
  sCQ   N3   1       0.3325   0.3524
  sCQ   N*   1       0.3325   0.3524
  sCQ    O   1       0.3180   0.3917
  sCQ   OB   1       0.3180   0.3917
  sCQ   OW   1       0.3275   0.3334
  sCQ   OH   1       0.3233   0.3921
  sCQ   O3   1       0.3233   0.3921
  sCQ   OS   1       0.3200   0.3524
  sCQ   O2   1       0.3180   0.3917
  sCQ    P   1       0.3571   0.3823
  sCQ    S   1       0.3482   0.4274
  sCQ   SH   1       0.3482   0.4274
  sCQ   CU   1       0.3400   0.2507
  sCQ   FE   1       0.1700   0.0000
  sCQ    K   1       0.4068   0.0155
  sCQ   Rb   1       0.4333   0.0111
  sCQ   Li   1       0.2713   0.1156
  sCQ   Zn   1       0.2680   0.0956
  sCQ HW_tip4pew   1       0.1700   0.0000
  sCQ OW_tip4pew   1       0.3282   0.3448
  sCQ HW_tip4p   1       0.1700   0.0000
  sCQ OW_tip4p   1       0.3277   0.3365
  sCQ HW_tip5p   1       0.1700   0.0000
  sCQ OW_tip5p   1       0.3260   0.3419
  sCQ HW_tip4pd   1       0.1700   0.0000
  sCQ OW_tip4pd   1       0.3282   0.4177
  sCQ   MW   1       0.1700   0.0000
  sCQ MCH3   1       0.1700   0.0000
  sCQ MNH3   1       0.1700   0.0000
  sCQ   c3   1       0.3400   0.2827
  sCQ   hc   1       0.3025   0.1071
  sCQ    c   1       0.3400   0.2507
  sCQ    o   1       0.3180   0.3917
  sCQ    n   1       0.3325   0.3524
  sCQ   h1   1       0.2936   0.1071
  sCQ   ca   1       0.3400   0.2507
  sCQ   ha   1       0.3000   0.1047
  sCQ   n3   1       0.3325   0.3524
  sCQ   hx   1       0.2680   0.1071
  sCQ   n4   1       0.3325   0.3524
  sCQ   hn   1       0.2234   0.1071
  sCR   Br   1       0.1700   0.0000
  sCR    C   1       0.3400   0.2507
  sCR   C6   1       0.3400   0.2507
  sCR   C5   1       0.3400   0.2507
  sCR   CA   1       0.3400   0.2507
  sCR   CB   1       0.3400   0.2507
  sCR   CC   1       0.3400   0.2507
  sCR   CK   1       0.3400   0.2507
  sCR   CM   1       0.3400   0.2507
  sCR   CN   1       0.3400   0.2507
  sCR   CQ   1       0.3400   0.2507
  sCR   CR   1       0.3400   0.2507
  sCR   CT   1       0.3400   0.2827
  sCR   C1   1       0.3400   0.2827
  sCR   C3   1       0.3400   0.2827
  sCR   C4   1       0.3400   0.2827
  sCR   C7   1       0.3400   0.2827
  sCR   C8   1       0.3400   0.2827
  sCR   C9   1       0.3400   0.2827
  sCR   CV   1       0.3400   0.2507
  sCR   CW   1       0.3400   0.2507
  sCR   C*   1       0.3400   0.2507
  sCR   C0   1       0.3226   0.5796
  sCR    F   1       0.3259   0.2111
  sCR    H   1       0.2234   0.1071
  sCR   HB   1       0.2234   0.1071
  sCR   HC   1       0.3025   0.1071
  sCR   H1   1       0.2936   0.1071
  sCR   H2   1       0.2846   0.1071
  sCR   H3   1       0.2757   0.1071
  sCR   HA   1       0.3000   0.1047
  sCR   H4   1       0.2955   0.1047
  sCR   H5   1       0.2911   0.1047
  sCR   HO   1       0.1700   0.0000
  sCR   HS   1       0.2234   0.1071
  sCR   HW   1       0.1700   0.0000
  sCR   HP   1       0.2680   0.1071
  sCR    I   1       0.3793   0.5406
  sCR   Cl   1       0.3900   0.2703
  sCR   Na   1       0.3364   0.0450
  sCR   IB   1       0.6154   0.2703
  sCR   MG   1       0.2406   0.8085
  sCR    N   1       0.3325   0.3524
  sCR   NA   1       0.3325   0.3524
  sCR   NB   1       0.3325   0.3524
  sCR   NC   1       0.3325   0.3524
  sCR   N2   1       0.3325   0.3524
  sCR   N3   1       0.3325   0.3524
  sCR   N*   1       0.3325   0.3524
  sCR    O   1       0.3180   0.3917
  sCR   OB   1       0.3180   0.3917
  sCR   OW   1       0.3275   0.3334
  sCR   OH   1       0.3233   0.3921
  sCR   O3   1       0.3233   0.3921
  sCR   OS   1       0.3200   0.3524
  sCR   O2   1       0.3180   0.3917
  sCR    P   1       0.3571   0.3823
  sCR    S   1       0.3482   0.4274
  sCR   SH   1       0.3482   0.4274
  sCR   CU   1       0.3400   0.2507
  sCR   FE   1       0.1700   0.0000
  sCR    K   1       0.4068   0.0155
  sCR   Rb   1       0.4333   0.0111
  sCR   Li   1       0.2713   0.1156
  sCR   Zn   1       0.2680   0.0956
  sCR HW_tip4pew   1       0.1700   0.0000
  sCR OW_tip4pew   1       0.3282   0.3448
  sCR HW_tip4p   1       0.1700   0.0000
  sCR OW_tip4p   1       0.3277   0.3365
  sCR HW_tip5p   1       0.1700   0.0000
  sCR OW_tip5p   1       0.3260   0.3419
  sCR HW_tip4pd   1       0.1700   0.0000
  sCR OW_tip4pd   1       0.3282   0.4177
  sCR   MW   1       0.1700   0.0000
  sCR MCH3   1       0.1700   0.0000
  sCR MNH3   1       0.1700   0.0000
  sCR   c3   1       0.3400   0.2827
  sCR   hc   1       0.3025   0.1071
  sCR    c   1       0.3400   0.2507
  sCR    o   1       0.3180   0.3917
  sCR    n   1       0.3325   0.3524
  sCR   h1   1       0.2936   0.1071
  sCR   ca   1       0.3400   0.2507
  sCR   ha   1       0.3000   0.1047
  sCR   n3   1       0.3325   0.3524
  sCR   hx   1       0.2680   0.1071
  sCR   n4   1       0.3325   0.3524
  sCR   hn   1       0.2234   0.1071
  sCT   Br   1       0.1700   0.0000
  sCT    C   1       0.3400   0.2827
  sCT   C6   1       0.3400   0.2827
  sCT   C5   1       0.3400   0.2827
  sCT   CA   1       0.3400   0.2827
  sCT   CB   1       0.3400   0.2827
  sCT   CC   1       0.3400   0.2827
  sCT   CK   1       0.3400   0.2827
  sCT   CM   1       0.3400   0.2827
  sCT   CN   1       0.3400   0.2827
  sCT   CQ   1       0.3400   0.2827
  sCT   CR   1       0.3400   0.2827
  sCT   CT   1       0.3400   0.3189
  sCT   C1   1       0.3400   0.3189
  sCT   C3   1       0.3400   0.3189
  sCT   C4   1       0.3400   0.3189
  sCT   C7   1       0.3400   0.3189
  sCT   C8   1       0.3400   0.3189
  sCT   C9   1       0.3400   0.3189
  sCT   CV   1       0.3400   0.2827
  sCT   CW   1       0.3400   0.2827
  sCT   C*   1       0.3400   0.2827
  sCT   C0   1       0.3226   0.6537
  sCT    F   1       0.3259   0.2381
  sCT    H   1       0.2234   0.1208
  sCT   HB   1       0.2234   0.1208
  sCT   HC   1       0.3025   0.1208
  sCT   H1   1       0.2936   0.1208
  sCT   H2   1       0.2846   0.1208
  sCT   H3   1       0.2757   0.1208
  sCT   HA   1       0.3000   0.1181
  sCT   H4   1       0.2955   0.1181
  sCT   H5   1       0.2911   0.1181
  sCT   HO   1       0.1700   0.0000
  sCT   HS   1       0.2234   0.1208
  sCT   HW   1       0.1700   0.0000
  sCT   HP   1       0.2680   0.1208
  sCT    I   1       0.3793   0.6098
  sCT   Cl   1       0.3900   0.3049
  sCT   Na   1       0.3364   0.0507
  sCT   IB   1       0.6154   0.3049
  sCT   MG   1       0.2406   0.9119
  sCT    N   1       0.3325   0.3975
  sCT   NA   1       0.3325   0.3975
  sCT   NB   1       0.3325   0.3975
  sCT   NC   1       0.3325   0.3975
  sCT   N2   1       0.3325   0.3975
  sCT   N3   1       0.3325   0.3975
  sCT   N*   1       0.3325   0.3975
  sCT    O   1       0.3180   0.4418
  sCT   OB   1       0.3180   0.4418
  sCT   OW   1       0.3275   0.3760
  sCT   OH   1       0.3233   0.4422
  sCT   O3   1       0.3233   0.4422
  sCT   OS   1       0.3200   0.3975
  sCT   O2   1       0.3180   0.4418
  sCT    P   1       0.3571   0.4312
  sCT    S   1       0.3482   0.4821
  sCT   SH   1       0.3482   0.4821
  sCT   CU   1       0.3400   0.2827
  sCT   FE   1       0.1700   0.0000
  sCT    K   1       0.4068   0.0175
  sCT   Rb   1       0.4333   0.0126
  sCT   Li   1       0.2713   0.1304
  sCT   Zn   1       0.2680   0.1078
  sCT HW_tip4pew   1       0.1700   0.0000
  sCT OW_tip4pew   1       0.3282   0.3889
  sCT HW_tip4p   1       0.1700   0.0000
  sCT OW_tip4p   1       0.3277   0.3796
  sCT HW_tip5p   1       0.1700   0.0000
  sCT OW_tip5p   1       0.3260   0.3856
  sCT HW_tip4pd   1       0.1700   0.0000
  sCT OW_tip4pd   1       0.3282   0.4711
  sCT   MW   1       0.1700   0.0000
  sCT MCH3   1       0.1700   0.0000
  sCT MNH3   1       0.1700   0.0000
  sCT   c3   1       0.3400   0.3189
  sCT   hc   1       0.3025   0.1208
  sCT    c   1       0.3400   0.2827
  sCT    o   1       0.3180   0.4418
  sCT    n   1       0.3325   0.3975
  sCT   h1   1       0.2936   0.1208
  sCT   ca   1       0.3400   0.2827
  sCT   ha   1       0.3000   0.1181
  sCT   n3   1       0.3325   0.3975
  sCT   hx   1       0.2680   0.1208
  sCT   n4   1       0.3325   0.3975
  sCT   hn   1       0.2234   0.1208
  sC1   Br   1       0.1700   0.0000
  sC1    C   1       0.3400   0.2827
  sC1   C6   1       0.3400   0.2827
  sC1   C5   1       0.3400   0.2827
  sC1   CA   1       0.3400   0.2827
  sC1   CB   1       0.3400   0.2827
  sC1   CC   1       0.3400   0.2827
  sC1   CK   1       0.3400   0.2827
  sC1   CM   1       0.3400   0.2827
  sC1   CN   1       0.3400   0.2827
  sC1   CQ   1       0.3400   0.2827
  sC1   CR   1       0.3400   0.2827
  sC1   CT   1       0.3400   0.3189
  sC1   C1   1       0.3400   0.3189
  sC1   C3   1       0.3400   0.3189
  sC1   C4   1       0.3400   0.3189
  sC1   C7   1       0.3400   0.3189
  sC1   C8   1       0.3400   0.3189
  sC1   C9   1       0.3400   0.3189
  sC1   CV   1       0.3400   0.2827
  sC1   CW   1       0.3400   0.2827
  sC1   C*   1       0.3400   0.2827
  sC1   C0   1       0.3226   0.6537
  sC1    F   1       0.3259   0.2381
  sC1    H   1       0.2234   0.1208
  sC1   HB   1       0.2234   0.1208
  sC1   HC   1       0.3025   0.1208
  sC1   H1   1       0.2936   0.1208
  sC1   H2   1       0.2846   0.1208
  sC1   H3   1       0.2757   0.1208
  sC1   HA   1       0.3000   0.1181
  sC1   H4   1       0.2955   0.1181
  sC1   H5   1       0.2911   0.1181
  sC1   HO   1       0.1700   0.0000
  sC1   HS   1       0.2234   0.1208
  sC1   HW   1       0.1700   0.0000
  sC1   HP   1       0.2680   0.1208
  sC1    I   1       0.3793   0.6098
  sC1   Cl   1       0.3900   0.3049
  sC1   Na   1       0.3364   0.0507
  sC1   IB   1       0.6154   0.3049
  sC1   MG   1       0.2406   0.9119
  sC1    N   1       0.3325   0.3975
  sC1   NA   1       0.3325   0.3975
  sC1   NB   1       0.3325   0.3975
  sC1   NC   1       0.3325   0.3975
  sC1   N2   1       0.3325   0.3975
  sC1   N3   1       0.3325   0.3975
  sC1   N*   1       0.3325   0.3975
  sC1    O   1       0.3180   0.4418
  sC1   OB   1       0.3180   0.4418
  sC1   OW   1       0.3275   0.3760
  sC1   OH   1       0.3233   0.4422
  sC1   O3   1       0.3233   0.4422
  sC1   OS   1       0.3200   0.3975
  sC1   O2   1       0.3180   0.4418
  sC1    P   1       0.3571   0.4312
  sC1    S   1       0.3482   0.4821
  sC1   SH   1       0.3482   0.4821
  sC1   CU   1       0.3400   0.2827
  sC1   FE   1       0.1700   0.0000
  sC1    K   1       0.4068   0.0175
  sC1   Rb   1       0.4333   0.0126
  sC1   Li   1       0.2713   0.1304
  sC1   Zn   1       0.2680   0.1078
  sC1 HW_tip4pew   1       0.1700   0.0000
  sC1 OW_tip4pew   1       0.3282   0.3889
  sC1 HW_tip4p   1       0.1700   0.0000
  sC1 OW_tip4p   1       0.3277   0.3796
  sC1 HW_tip5p   1       0.1700   0.0000
  sC1 OW_tip5p   1       0.3260   0.3856
  sC1 HW_tip4pd   1       0.1700   0.0000
  sC1 OW_tip4pd   1       0.3282   0.4711
  sC1   MW   1       0.1700   0.0000
  sC1 MCH3   1       0.1700   0.0000
  sC1 MNH3   1       0.1700   0.0000
  sC1   c3   1       0.3400   0.3189
  sC1   hc   1       0.3025   0.1208
  sC1    c   1       0.3400   0.2827
  sC1    o   1       0.3180   0.4418
  sC1    n   1       0.3325   0.3975
  sC1   h1   1       0.2936   0.1208
  sC1   ca   1       0.3400   0.2827
  sC1   ha   1       0.3000   0.1181
  sC1   n3   1       0.3325   0.3975
  sC1   hx   1       0.2680   0.1208
  sC1   n4   1       0.3325   0.3975
  sC1   hn   1       0.2234   0.1208
  sC3   Br   1       0.1700   0.0000
  sC3    C   1       0.3400   0.2827
  sC3   C6   1       0.3400   0.2827
  sC3   C5   1       0.3400   0.2827
  sC3   CA   1       0.3400   0.2827
  sC3   CB   1       0.3400   0.2827
  sC3   CC   1       0.3400   0.2827
  sC3   CK   1       0.3400   0.2827
  sC3   CM   1       0.3400   0.2827
  sC3   CN   1       0.3400   0.2827
  sC3   CQ   1       0.3400   0.2827
  sC3   CR   1       0.3400   0.2827
  sC3   CT   1       0.3400   0.3189
  sC3   C1   1       0.3400   0.3189
  sC3   C3   1       0.3400   0.3189
  sC3   C4   1       0.3400   0.3189
  sC3   C7   1       0.3400   0.3189
  sC3   C8   1       0.3400   0.3189
  sC3   C9   1       0.3400   0.3189
  sC3   CV   1       0.3400   0.2827
  sC3   CW   1       0.3400   0.2827
  sC3   C*   1       0.3400   0.2827
  sC3   C0   1       0.3226   0.6537
  sC3    F   1       0.3259   0.2381
  sC3    H   1       0.2234   0.1208
  sC3   HB   1       0.2234   0.1208
  sC3   HC   1       0.3025   0.1208
  sC3   H1   1       0.2936   0.1208
  sC3   H2   1       0.2846   0.1208
  sC3   H3   1       0.2757   0.1208
  sC3   HA   1       0.3000   0.1181
  sC3   H4   1       0.2955   0.1181
  sC3   H5   1       0.2911   0.1181
  sC3   HO   1       0.1700   0.0000
  sC3   HS   1       0.2234   0.1208
  sC3   HW   1       0.1700   0.0000
  sC3   HP   1       0.2680   0.1208
  sC3    I   1       0.3793   0.6098
  sC3   Cl   1       0.3900   0.3049
  sC3   Na   1       0.3364   0.0507
  sC3   IB   1       0.6154   0.3049
  sC3   MG   1       0.2406   0.9119
  sC3    N   1       0.3325   0.3975
  sC3   NA   1       0.3325   0.3975
  sC3   NB   1       0.3325   0.3975
  sC3   NC   1       0.3325   0.3975
  sC3   N2   1       0.3325   0.3975
  sC3   N3   1       0.3325   0.3975
  sC3   N*   1       0.3325   0.3975
  sC3    O   1       0.3180   0.4418
  sC3   OB   1       0.3180   0.4418
  sC3   OW   1       0.3275   0.3760
  sC3   OH   1       0.3233   0.4422
  sC3   O3   1       0.3233   0.4422
  sC3   OS   1       0.3200   0.3975
  sC3   O2   1       0.3180   0.4418
  sC3    P   1       0.3571   0.4312
  sC3    S   1       0.3482   0.4821
  sC3   SH   1       0.3482   0.4821
  sC3   CU   1       0.3400   0.2827
  sC3   FE   1       0.1700   0.0000
  sC3    K   1       0.4068   0.0175
  sC3   Rb   1       0.4333   0.0126
  sC3   Li   1       0.2713   0.1304
  sC3   Zn   1       0.2680   0.1078
  sC3 HW_tip4pew   1       0.1700   0.0000
  sC3 OW_tip4pew   1       0.3282   0.3889
  sC3 HW_tip4p   1       0.1700   0.0000
  sC3 OW_tip4p   1       0.3277   0.3796
  sC3 HW_tip5p   1       0.1700   0.0000
  sC3 OW_tip5p   1       0.3260   0.3856
  sC3 HW_tip4pd   1       0.1700   0.0000
  sC3 OW_tip4pd   1       0.3282   0.4711
  sC3   MW   1       0.1700   0.0000
  sC3 MCH3   1       0.1700   0.0000
  sC3 MNH3   1       0.1700   0.0000
  sC3   c3   1       0.3400   0.3189
  sC3   hc   1       0.3025   0.1208
  sC3    c   1       0.3400   0.2827
  sC3    o   1       0.3180   0.4418
  sC3    n   1       0.3325   0.3975
  sC3   h1   1       0.2936   0.1208
  sC3   ca   1       0.3400   0.2827
  sC3   ha   1       0.3000   0.1181
  sC3   n3   1       0.3325   0.3975
  sC3   hx   1       0.2680   0.1208
  sC3   n4   1       0.3325   0.3975
  sC3   hn   1       0.2234   0.1208
  sC4   Br   1       0.1700   0.0000
  sC4    C   1       0.3400   0.2827
  sC4   C6   1       0.3400   0.2827
  sC4   C5   1       0.3400   0.2827
  sC4   CA   1       0.3400   0.2827
  sC4   CB   1       0.3400   0.2827
  sC4   CC   1       0.3400   0.2827
  sC4   CK   1       0.3400   0.2827
  sC4   CM   1       0.3400   0.2827
  sC4   CN   1       0.3400   0.2827
  sC4   CQ   1       0.3400   0.2827
  sC4   CR   1       0.3400   0.2827
  sC4   CT   1       0.3400   0.3189
  sC4   C1   1       0.3400   0.3189
  sC4   C3   1       0.3400   0.3189
  sC4   C4   1       0.3400   0.3189
  sC4   C7   1       0.3400   0.3189
  sC4   C8   1       0.3400   0.3189
  sC4   C9   1       0.3400   0.3189
  sC4   CV   1       0.3400   0.2827
  sC4   CW   1       0.3400   0.2827
  sC4   C*   1       0.3400   0.2827
  sC4   C0   1       0.3226   0.6537
  sC4    F   1       0.3259   0.2381
  sC4    H   1       0.2234   0.1208
  sC4   HB   1       0.2234   0.1208
  sC4   HC   1       0.3025   0.1208
  sC4   H1   1       0.2936   0.1208
  sC4   H2   1       0.2846   0.1208
  sC4   H3   1       0.2757   0.1208
  sC4   HA   1       0.3000   0.1181
  sC4   H4   1       0.2955   0.1181
  sC4   H5   1       0.2911   0.1181
  sC4   HO   1       0.1700   0.0000
  sC4   HS   1       0.2234   0.1208
  sC4   HW   1       0.1700   0.0000
  sC4   HP   1       0.2680   0.1208
  sC4    I   1       0.3793   0.6098
  sC4   Cl   1       0.3900   0.3049
  sC4   Na   1       0.3364   0.0507
  sC4   IB   1       0.6154   0.3049
  sC4   MG   1       0.2406   0.9119
  sC4    N   1       0.3325   0.3975
  sC4   NA   1       0.3325   0.3975
  sC4   NB   1       0.3325   0.3975
  sC4   NC   1       0.3325   0.3975
  sC4   N2   1       0.3325   0.3975
  sC4   N3   1       0.3325   0.3975
  sC4   N*   1       0.3325   0.3975
  sC4    O   1       0.3180   0.4418
  sC4   OB   1       0.3180   0.4418
  sC4   OW   1       0.3275   0.3760
  sC4   OH   1       0.3233   0.4422
  sC4   O3   1       0.3233   0.4422
  sC4   OS   1       0.3200   0.3975
  sC4   O2   1       0.3180   0.4418
  sC4    P   1       0.3571   0.4312
  sC4    S   1       0.3482   0.4821
  sC4   SH   1       0.3482   0.4821
  sC4   CU   1       0.3400   0.2827
  sC4   FE   1       0.1700   0.0000
  sC4    K   1       0.4068   0.0175
  sC4   Rb   1       0.4333   0.0126
  sC4   Li   1       0.2713   0.1304
  sC4   Zn   1       0.2680   0.1078
  sC4 HW_tip4pew   1       0.1700   0.0000
  sC4 OW_tip4pew   1       0.3282   0.3889
  sC4 HW_tip4p   1       0.1700   0.0000
  sC4 OW_tip4p   1       0.3277   0.3796
  sC4 HW_tip5p   1       0.1700   0.0000
  sC4 OW_tip5p   1       0.3260   0.3856
  sC4 HW_tip4pd   1       0.1700   0.0000
  sC4 OW_tip4pd   1       0.3282   0.4711
  sC4   MW   1       0.1700   0.0000
  sC4 MCH3   1       0.1700   0.0000
  sC4 MNH3   1       0.1700   0.0000
  sC4   c3   1       0.3400   0.3189
  sC4   hc   1       0.3025   0.1208
  sC4    c   1       0.3400   0.2827
  sC4    o   1       0.3180   0.4418
  sC4    n   1       0.3325   0.3975
  sC4   h1   1       0.2936   0.1208
  sC4   ca   1       0.3400   0.2827
  sC4   ha   1       0.3000   0.1181
  sC4   n3   1       0.3325   0.3975
  sC4   hx   1       0.2680   0.1208
  sC4   n4   1       0.3325   0.3975
  sC4   hn   1       0.2234   0.1208
  sC7   Br   1       0.1700   0.0000
  sC7    C   1       0.3400   0.2827
  sC7   C6   1       0.3400   0.2827
  sC7   C5   1       0.3400   0.2827
  sC7   CA   1       0.3400   0.2827
  sC7   CB   1       0.3400   0.2827
  sC7   CC   1       0.3400   0.2827
  sC7   CK   1       0.3400   0.2827
  sC7   CM   1       0.3400   0.2827
  sC7   CN   1       0.3400   0.2827
  sC7   CQ   1       0.3400   0.2827
  sC7   CR   1       0.3400   0.2827
  sC7   CT   1       0.3400   0.3189
  sC7   C1   1       0.3400   0.3189
  sC7   C3   1       0.3400   0.3189
  sC7   C4   1       0.3400   0.3189
  sC7   C7   1       0.3400   0.3189
  sC7   C8   1       0.3400   0.3189
  sC7   C9   1       0.3400   0.3189
  sC7   CV   1       0.3400   0.2827
  sC7   CW   1       0.3400   0.2827
  sC7   C*   1       0.3400   0.2827
  sC7   C0   1       0.3226   0.6537
  sC7    F   1       0.3259   0.2381
  sC7    H   1       0.2234   0.1208
  sC7   HB   1       0.2234   0.1208
  sC7   HC   1       0.3025   0.1208
  sC7   H1   1       0.2936   0.1208
  sC7   H2   1       0.2846   0.1208
  sC7   H3   1       0.2757   0.1208
  sC7   HA   1       0.3000   0.1181
  sC7   H4   1       0.2955   0.1181
  sC7   H5   1       0.2911   0.1181
  sC7   HO   1       0.1700   0.0000
  sC7   HS   1       0.2234   0.1208
  sC7   HW   1       0.1700   0.0000
  sC7   HP   1       0.2680   0.1208
  sC7    I   1       0.3793   0.6098
  sC7   Cl   1       0.3900   0.3049
  sC7   Na   1       0.3364   0.0507
  sC7   IB   1       0.6154   0.3049
  sC7   MG   1       0.2406   0.9119
  sC7    N   1       0.3325   0.3975
  sC7   NA   1       0.3325   0.3975
  sC7   NB   1       0.3325   0.3975
  sC7   NC   1       0.3325   0.3975
  sC7   N2   1       0.3325   0.3975
  sC7   N3   1       0.3325   0.3975
  sC7   N*   1       0.3325   0.3975
  sC7    O   1       0.3180   0.4418
  sC7   OB   1       0.3180   0.4418
  sC7   OW   1       0.3275   0.3760
  sC7   OH   1       0.3233   0.4422
  sC7   O3   1       0.3233   0.4422
  sC7   OS   1       0.3200   0.3975
  sC7   O2   1       0.3180   0.4418
  sC7    P   1       0.3571   0.4312
  sC7    S   1       0.3482   0.4821
  sC7   SH   1       0.3482   0.4821
  sC7   CU   1       0.3400   0.2827
  sC7   FE   1       0.1700   0.0000
  sC7    K   1       0.4068   0.0175
  sC7   Rb   1       0.4333   0.0126
  sC7   Li   1       0.2713   0.1304
  sC7   Zn   1       0.2680   0.1078
  sC7 HW_tip4pew   1       0.1700   0.0000
  sC7 OW_tip4pew   1       0.3282   0.3889
  sC7 HW_tip4p   1       0.1700   0.0000
  sC7 OW_tip4p   1       0.3277   0.3796
  sC7 HW_tip5p   1       0.1700   0.0000
  sC7 OW_tip5p   1       0.3260   0.3856
  sC7 HW_tip4pd   1       0.1700   0.0000
  sC7 OW_tip4pd   1       0.3282   0.4711
  sC7   MW   1       0.1700   0.0000
  sC7 MCH3   1       0.1700   0.0000
  sC7 MNH3   1       0.1700   0.0000
  sC7   c3   1       0.3400   0.3189
  sC7   hc   1       0.3025   0.1208
  sC7    c   1       0.3400   0.2827
  sC7    o   1       0.3180   0.4418
  sC7    n   1       0.3325   0.3975
  sC7   h1   1       0.2936   0.1208
  sC7   ca   1       0.3400   0.2827
  sC7   ha   1       0.3000   0.1181
  sC7   n3   1       0.3325   0.3975
  sC7   hx   1       0.2680   0.1208
  sC7   n4   1       0.3325   0.3975
  sC7   hn   1       0.2234   0.1208
  sC8   Br   1       0.1700   0.0000
  sC8    C   1       0.3400   0.2827
  sC8   C6   1       0.3400   0.2827
  sC8   C5   1       0.3400   0.2827
  sC8   CA   1       0.3400   0.2827
  sC8   CB   1       0.3400   0.2827
  sC8   CC   1       0.3400   0.2827
  sC8   CK   1       0.3400   0.2827
  sC8   CM   1       0.3400   0.2827
  sC8   CN   1       0.3400   0.2827
  sC8   CQ   1       0.3400   0.2827
  sC8   CR   1       0.3400   0.2827
  sC8   CT   1       0.3400   0.3189
  sC8   C1   1       0.3400   0.3189
  sC8   C3   1       0.3400   0.3189
  sC8   C4   1       0.3400   0.3189
  sC8   C7   1       0.3400   0.3189
  sC8   C8   1       0.3400   0.3189
  sC8   C9   1       0.3400   0.3189
  sC8   CV   1       0.3400   0.2827
  sC8   CW   1       0.3400   0.2827
  sC8   C*   1       0.3400   0.2827
  sC8   C0   1       0.3226   0.6537
  sC8    F   1       0.3259   0.2381
  sC8    H   1       0.2234   0.1208
  sC8   HB   1       0.2234   0.1208
  sC8   HC   1       0.3025   0.1208
  sC8   H1   1       0.2936   0.1208
  sC8   H2   1       0.2846   0.1208
  sC8   H3   1       0.2757   0.1208
  sC8   HA   1       0.3000   0.1181
  sC8   H4   1       0.2955   0.1181
  sC8   H5   1       0.2911   0.1181
  sC8   HO   1       0.1700   0.0000
  sC8   HS   1       0.2234   0.1208
  sC8   HW   1       0.1700   0.0000
  sC8   HP   1       0.2680   0.1208
  sC8    I   1       0.3793   0.6098
  sC8   Cl   1       0.3900   0.3049
  sC8   Na   1       0.3364   0.0507
  sC8   IB   1       0.6154   0.3049
  sC8   MG   1       0.2406   0.9119
  sC8    N   1       0.3325   0.3975
  sC8   NA   1       0.3325   0.3975
  sC8   NB   1       0.3325   0.3975
  sC8   NC   1       0.3325   0.3975
  sC8   N2   1       0.3325   0.3975
  sC8   N3   1       0.3325   0.3975
  sC8   N*   1       0.3325   0.3975
  sC8    O   1       0.3180   0.4418
  sC8   OB   1       0.3180   0.4418
  sC8   OW   1       0.3275   0.3760
  sC8   OH   1       0.3233   0.4422
  sC8   O3   1       0.3233   0.4422
  sC8   OS   1       0.3200   0.3975
  sC8   O2   1       0.3180   0.4418
  sC8    P   1       0.3571   0.4312
  sC8    S   1       0.3482   0.4821
  sC8   SH   1       0.3482   0.4821
  sC8   CU   1       0.3400   0.2827
  sC8   FE   1       0.1700   0.0000
  sC8    K   1       0.4068   0.0175
  sC8   Rb   1       0.4333   0.0126
  sC8   Li   1       0.2713   0.1304
  sC8   Zn   1       0.2680   0.1078
  sC8 HW_tip4pew   1       0.1700   0.0000
  sC8 OW_tip4pew   1       0.3282   0.3889
  sC8 HW_tip4p   1       0.1700   0.0000
  sC8 OW_tip4p   1       0.3277   0.3796
  sC8 HW_tip5p   1       0.1700   0.0000
  sC8 OW_tip5p   1       0.3260   0.3856
  sC8 HW_tip4pd   1       0.1700   0.0000
  sC8 OW_tip4pd   1       0.3282   0.4711
  sC8   MW   1       0.1700   0.0000
  sC8 MCH3   1       0.1700   0.0000
  sC8 MNH3   1       0.1700   0.0000
  sC8   c3   1       0.3400   0.3189
  sC8   hc   1       0.3025   0.1208
  sC8    c   1       0.3400   0.2827
  sC8    o   1       0.3180   0.4418
  sC8    n   1       0.3325   0.3975
  sC8   h1   1       0.2936   0.1208
  sC8   ca   1       0.3400   0.2827
  sC8   ha   1       0.3000   0.1181
  sC8   n3   1       0.3325   0.3975
  sC8   hx   1       0.2680   0.1208
  sC8   n4   1       0.3325   0.3975
  sC8   hn   1       0.2234   0.1208
  sC9   Br   1       0.1700   0.0000
  sC9    C   1       0.3400   0.2827
  sC9   C6   1       0.3400   0.2827
  sC9   C5   1       0.3400   0.2827
  sC9   CA   1       0.3400   0.2827
  sC9   CB   1       0.3400   0.2827
  sC9   CC   1       0.3400   0.2827
  sC9   CK   1       0.3400   0.2827
  sC9   CM   1       0.3400   0.2827
  sC9   CN   1       0.3400   0.2827
  sC9   CQ   1       0.3400   0.2827
  sC9   CR   1       0.3400   0.2827
  sC9   CT   1       0.3400   0.3189
  sC9   C1   1       0.3400   0.3189
  sC9   C3   1       0.3400   0.3189
  sC9   C4   1       0.3400   0.3189
  sC9   C7   1       0.3400   0.3189
  sC9   C8   1       0.3400   0.3189
  sC9   C9   1       0.3400   0.3189
  sC9   CV   1       0.3400   0.2827
  sC9   CW   1       0.3400   0.2827
  sC9   C*   1       0.3400   0.2827
  sC9   C0   1       0.3226   0.6537
  sC9    F   1       0.3259   0.2381
  sC9    H   1       0.2234   0.1208
  sC9   HB   1       0.2234   0.1208
  sC9   HC   1       0.3025   0.1208
  sC9   H1   1       0.2936   0.1208
  sC9   H2   1       0.2846   0.1208
  sC9   H3   1       0.2757   0.1208
  sC9   HA   1       0.3000   0.1181
  sC9   H4   1       0.2955   0.1181
  sC9   H5   1       0.2911   0.1181
  sC9   HO   1       0.1700   0.0000
  sC9   HS   1       0.2234   0.1208
  sC9   HW   1       0.1700   0.0000
  sC9   HP   1       0.2680   0.1208
  sC9    I   1       0.3793   0.6098
  sC9   Cl   1       0.3900   0.3049
  sC9   Na   1       0.3364   0.0507
  sC9   IB   1       0.6154   0.3049
  sC9   MG   1       0.2406   0.9119
  sC9    N   1       0.3325   0.3975
  sC9   NA   1       0.3325   0.3975
  sC9   NB   1       0.3325   0.3975
  sC9   NC   1       0.3325   0.3975
  sC9   N2   1       0.3325   0.3975
  sC9   N3   1       0.3325   0.3975
  sC9   N*   1       0.3325   0.3975
  sC9    O   1       0.3180   0.4418
  sC9   OB   1       0.3180   0.4418
  sC9   OW   1       0.3275   0.3760
  sC9   OH   1       0.3233   0.4422
  sC9   O3   1       0.3233   0.4422
  sC9   OS   1       0.3200   0.3975
  sC9   O2   1       0.3180   0.4418
  sC9    P   1       0.3571   0.4312
  sC9    S   1       0.3482   0.4821
  sC9   SH   1       0.3482   0.4821
  sC9   CU   1       0.3400   0.2827
  sC9   FE   1       0.1700   0.0000
  sC9    K   1       0.4068   0.0175
  sC9   Rb   1       0.4333   0.0126
  sC9   Li   1       0.2713   0.1304
  sC9   Zn   1       0.2680   0.1078
  sC9 HW_tip4pew   1       0.1700   0.0000
  sC9 OW_tip4pew   1       0.3282   0.3889
  sC9 HW_tip4p   1       0.1700   0.0000
  sC9 OW_tip4p   1       0.3277   0.3796
  sC9 HW_tip5p   1       0.1700   0.0000
  sC9 OW_tip5p   1       0.3260   0.3856
  sC9 HW_tip4pd   1       0.1700   0.0000
  sC9 OW_tip4pd   1       0.3282   0.4711
  sC9   MW   1       0.1700   0.0000
  sC9 MCH3   1       0.1700   0.0000
  sC9 MNH3   1       0.1700   0.0000
  sC9   c3   1       0.3400   0.3189
  sC9   hc   1       0.3025   0.1208
  sC9    c   1       0.3400   0.2827
  sC9    o   1       0.3180   0.4418
  sC9    n   1       0.3325   0.3975
  sC9   h1   1       0.2936   0.1208
  sC9   ca   1       0.3400   0.2827
  sC9   ha   1       0.3000   0.1181
  sC9   n3   1       0.3325   0.3975
  sC9   hx   1       0.2680   0.1208
  sC9   n4   1       0.3325   0.3975
  sC9   hn   1       0.2234   0.1208
  sCV   Br   1       0.1700   0.0000
  sCV    C   1       0.3400   0.2507
  sCV   C6   1       0.3400   0.2507
  sCV   C5   1       0.3400   0.2507
  sCV   CA   1       0.3400   0.2507
  sCV   CB   1       0.3400   0.2507
  sCV   CC   1       0.3400   0.2507
  sCV   CK   1       0.3400   0.2507
  sCV   CM   1       0.3400   0.2507
  sCV   CN   1       0.3400   0.2507
  sCV   CQ   1       0.3400   0.2507
  sCV   CR   1       0.3400   0.2507
  sCV   CT   1       0.3400   0.2827
  sCV   C1   1       0.3400   0.2827
  sCV   C3   1       0.3400   0.2827
  sCV   C4   1       0.3400   0.2827
  sCV   C7   1       0.3400   0.2827
  sCV   C8   1       0.3400   0.2827
  sCV   C9   1       0.3400   0.2827
  sCV   CV   1       0.3400   0.2507
  sCV   CW   1       0.3400   0.2507
  sCV   C*   1       0.3400   0.2507
  sCV   C0   1       0.3226   0.5796
  sCV    F   1       0.3259   0.2111
  sCV    H   1       0.2234   0.1071
  sCV   HB   1       0.2234   0.1071
  sCV   HC   1       0.3025   0.1071
  sCV   H1   1       0.2936   0.1071
  sCV   H2   1       0.2846   0.1071
  sCV   H3   1       0.2757   0.1071
  sCV   HA   1       0.3000   0.1047
  sCV   H4   1       0.2955   0.1047
  sCV   H5   1       0.2911   0.1047
  sCV   HO   1       0.1700   0.0000
  sCV   HS   1       0.2234   0.1071
  sCV   HW   1       0.1700   0.0000
  sCV   HP   1       0.2680   0.1071
  sCV    I   1       0.3793   0.5406
  sCV   Cl   1       0.3900   0.2703
  sCV   Na   1       0.3364   0.0450
  sCV   IB   1       0.6154   0.2703
  sCV   MG   1       0.2406   0.8085
  sCV    N   1       0.3325   0.3524
  sCV   NA   1       0.3325   0.3524
  sCV   NB   1       0.3325   0.3524
  sCV   NC   1       0.3325   0.3524
  sCV   N2   1       0.3325   0.3524
  sCV   N3   1       0.3325   0.3524
  sCV   N*   1       0.3325   0.3524
  sCV    O   1       0.3180   0.3917
  sCV   OB   1       0.3180   0.3917
  sCV   OW   1       0.3275   0.3334
  sCV   OH   1       0.3233   0.3921
  sCV   O3   1       0.3233   0.3921
  sCV   OS   1       0.3200   0.3524
  sCV   O2   1       0.3180   0.3917
  sCV    P   1       0.3571   0.3823
  sCV    S   1       0.3482   0.4274
  sCV   SH   1       0.3482   0.4274
  sCV   CU   1       0.3400   0.2507
  sCV   FE   1       0.1700   0.0000
  sCV    K   1       0.4068   0.0155
  sCV   Rb   1       0.4333   0.0111
  sCV   Li   1       0.2713   0.1156
  sCV   Zn   1       0.2680   0.0956
  sCV HW_tip4pew   1       0.1700   0.0000
  sCV OW_tip4pew   1       0.3282   0.3448
  sCV HW_tip4p   1       0.1700   0.0000
  sCV OW_tip4p   1       0.3277   0.3365
  sCV HW_tip5p   1       0.1700   0.0000
  sCV OW_tip5p   1       0.3260   0.3419
  sCV HW_tip4pd   1       0.1700   0.0000
  sCV OW_tip4pd   1       0.3282   0.4177
  sCV   MW   1       0.1700   0.0000
  sCV MCH3   1       0.1700   0.0000
  sCV MNH3   1       0.1700   0.0000
  sCV   c3   1       0.3400   0.2827
  sCV   hc   1       0.3025   0.1071
  sCV    c   1       0.3400   0.2507
  sCV    o   1       0.3180   0.3917
  sCV    n   1       0.3325   0.3524
  sCV   h1   1       0.2936   0.1071
  sCV   ca   1       0.3400   0.2507
  sCV   ha   1       0.3000   0.1047
  sCV   n3   1       0.3325   0.3524
  sCV   hx   1       0.2680   0.1071
  sCV   n4   1       0.3325   0.3524
  sCV   hn   1       0.2234   0.1071
  sCW   Br   1       0.1700   0.0000
  sCW    C   1       0.3400   0.2507
  sCW   C6   1       0.3400   0.2507
  sCW   C5   1       0.3400   0.2507
  sCW   CA   1       0.3400   0.2507
  sCW   CB   1       0.3400   0.2507
  sCW   CC   1       0.3400   0.2507
  sCW   CK   1       0.3400   0.2507
  sCW   CM   1       0.3400   0.2507
  sCW   CN   1       0.3400   0.2507
  sCW   CQ   1       0.3400   0.2507
  sCW   CR   1       0.3400   0.2507
  sCW   CT   1       0.3400   0.2827
  sCW   C1   1       0.3400   0.2827
  sCW   C3   1       0.3400   0.2827
  sCW   C4   1       0.3400   0.2827
  sCW   C7   1       0.3400   0.2827
  sCW   C8   1       0.3400   0.2827
  sCW   C9   1       0.3400   0.2827
  sCW   CV   1       0.3400   0.2507
  sCW   CW   1       0.3400   0.2507
  sCW   C*   1       0.3400   0.2507
  sCW   C0   1       0.3226   0.5796
  sCW    F   1       0.3259   0.2111
  sCW    H   1       0.2234   0.1071
  sCW   HB   1       0.2234   0.1071
  sCW   HC   1       0.3025   0.1071
  sCW   H1   1       0.2936   0.1071
  sCW   H2   1       0.2846   0.1071
  sCW   H3   1       0.2757   0.1071
  sCW   HA   1       0.3000   0.1047
  sCW   H4   1       0.2955   0.1047
  sCW   H5   1       0.2911   0.1047
  sCW   HO   1       0.1700   0.0000
  sCW   HS   1       0.2234   0.1071
  sCW   HW   1       0.1700   0.0000
  sCW   HP   1       0.2680   0.1071
  sCW    I   1       0.3793   0.5406
  sCW   Cl   1       0.3900   0.2703
  sCW   Na   1       0.3364   0.0450
  sCW   IB   1       0.6154   0.2703
  sCW   MG   1       0.2406   0.8085
  sCW    N   1       0.3325   0.3524
  sCW   NA   1       0.3325   0.3524
  sCW   NB   1       0.3325   0.3524
  sCW   NC   1       0.3325   0.3524
  sCW   N2   1       0.3325   0.3524
  sCW   N3   1       0.3325   0.3524
  sCW   N*   1       0.3325   0.3524
  sCW    O   1       0.3180   0.3917
  sCW   OB   1       0.3180   0.3917
  sCW   OW   1       0.3275   0.3334
  sCW   OH   1       0.3233   0.3921
  sCW   O3   1       0.3233   0.3921
  sCW   OS   1       0.3200   0.3524
  sCW   O2   1       0.3180   0.3917
  sCW    P   1       0.3571   0.3823
  sCW    S   1       0.3482   0.4274
  sCW   SH   1       0.3482   0.4274
  sCW   CU   1       0.3400   0.2507
  sCW   FE   1       0.1700   0.0000
  sCW    K   1       0.4068   0.0155
  sCW   Rb   1       0.4333   0.0111
  sCW   Li   1       0.2713   0.1156
  sCW   Zn   1       0.2680   0.0956
  sCW HW_tip4pew   1       0.1700   0.0000
  sCW OW_tip4pew   1       0.3282   0.3448
  sCW HW_tip4p   1       0.1700   0.0000
  sCW OW_tip4p   1       0.3277   0.3365
  sCW HW_tip5p   1       0.1700   0.0000
  sCW OW_tip5p   1       0.3260   0.3419
  sCW HW_tip4pd   1       0.1700   0.0000
  sCW OW_tip4pd   1       0.3282   0.4177
  sCW   MW   1       0.1700   0.0000
  sCW MCH3   1       0.1700   0.0000
  sCW MNH3   1       0.1700   0.0000
  sCW   c3   1       0.3400   0.2827
  sCW   hc   1       0.3025   0.1071
  sCW    c   1       0.3400   0.2507
  sCW    o   1       0.3180   0.3917
  sCW    n   1       0.3325   0.3524
  sCW   h1   1       0.2936   0.1071
  sCW   ca   1       0.3400   0.2507
  sCW   ha   1       0.3000   0.1047
  sCW   n3   1       0.3325   0.3524
  sCW   hx   1       0.2680   0.1071
  sCW   n4   1       0.3325   0.3524
  sCW   hn   1       0.2234   0.1071
  sC*   Br   1       0.1700   0.0000
  sC*    C   1       0.3400   0.2507
  sC*   C6   1       0.3400   0.2507
  sC*   C5   1       0.3400   0.2507
  sC*   CA   1       0.3400   0.2507
  sC*   CB   1       0.3400   0.2507
  sC*   CC   1       0.3400   0.2507
  sC*   CK   1       0.3400   0.2507
  sC*   CM   1       0.3400   0.2507
  sC*   CN   1       0.3400   0.2507
  sC*   CQ   1       0.3400   0.2507
  sC*   CR   1       0.3400   0.2507
  sC*   CT   1       0.3400   0.2827
  sC*   C1   1       0.3400   0.2827
  sC*   C3   1       0.3400   0.2827
  sC*   C4   1       0.3400   0.2827
  sC*   C7   1       0.3400   0.2827
  sC*   C8   1       0.3400   0.2827
  sC*   C9   1       0.3400   0.2827
  sC*   CV   1       0.3400   0.2507
  sC*   CW   1       0.3400   0.2507
  sC*   C*   1       0.3400   0.2507
  sC*   C0   1       0.3226   0.5796
  sC*    F   1       0.3259   0.2111
  sC*    H   1       0.2234   0.1071
  sC*   HB   1       0.2234   0.1071
  sC*   HC   1       0.3025   0.1071
  sC*   H1   1       0.2936   0.1071
  sC*   H2   1       0.2846   0.1071
  sC*   H3   1       0.2757   0.1071
  sC*   HA   1       0.3000   0.1047
  sC*   H4   1       0.2955   0.1047
  sC*   H5   1       0.2911   0.1047
  sC*   HO   1       0.1700   0.0000
  sC*   HS   1       0.2234   0.1071
  sC*   HW   1       0.1700   0.0000
  sC*   HP   1       0.2680   0.1071
  sC*    I   1       0.3793   0.5406
  sC*   Cl   1       0.3900   0.2703
  sC*   Na   1       0.3364   0.0450
  sC*   IB   1       0.6154   0.2703
  sC*   MG   1       0.2406   0.8085
  sC*    N   1       0.3325   0.3524
  sC*   NA   1       0.3325   0.3524
  sC*   NB   1       0.3325   0.3524
  sC*   NC   1       0.3325   0.3524
  sC*   N2   1       0.3325   0.3524
  sC*   N3   1       0.3325   0.3524
  sC*   N*   1       0.3325   0.3524
  sC*    O   1       0.3180   0.3917
  sC*   OB   1       0.3180   0.3917
  sC*   OW   1       0.3275   0.3334
  sC*   OH   1       0.3233   0.3921
  sC*   O3   1       0.3233   0.3921
  sC*   OS   1       0.3200   0.3524
  sC*   O2   1       0.3180   0.3917
  sC*    P   1       0.3571   0.3823
  sC*    S   1       0.3482   0.4274
  sC*   SH   1       0.3482   0.4274
  sC*   CU   1       0.3400   0.2507
  sC*   FE   1       0.1700   0.0000
  sC*    K   1       0.4068   0.0155
  sC*   Rb   1       0.4333   0.0111
  sC*   Li   1       0.2713   0.1156
  sC*   Zn   1       0.2680   0.0956
  sC* HW_tip4pew   1       0.1700   0.0000
  sC* OW_tip4pew   1       0.3282   0.3448
  sC* HW_tip4p   1       0.1700   0.0000
  sC* OW_tip4p   1       0.3277   0.3365
  sC* HW_tip5p   1       0.1700   0.0000
  sC* OW_tip5p   1       0.3260   0.3419
  sC* HW_tip4pd   1       0.1700   0.0000
  sC* OW_tip4pd   1       0.3282   0.4177
  sC*   MW   1       0.1700   0.0000
  sC* MCH3   1       0.1700   0.0000
  sC* MNH3   1       0.1700   0.0000
  sC*   c3   1       0.3400   0.2827
  sC*   hc   1       0.3025   0.1071
  sC*    c   1       0.3400   0.2507
  sC*    o   1       0.3180   0.3917
  sC*    n   1       0.3325   0.3524
  sC*   h1   1       0.2936   0.1071
  sC*   ca   1       0.3400   0.2507
  sC*   ha   1       0.3000   0.1047
  sC*   n3   1       0.3325   0.3524
  sC*   hx   1       0.2680   0.1071
  sC*   n4   1       0.3325   0.3524
  sC*   hn   1       0.2234   0.1071
  sC0   Br   1       0.1526   0.0000
  sC0    C   1       0.3226   0.5796
  sC0   C6   1       0.3226   0.5796
  sC0   C5   1       0.3226   0.5796
  sC0   CA   1       0.3226   0.5796
  sC0   CB   1       0.3226   0.5796
  sC0   CC   1       0.3226   0.5796
  sC0   CK   1       0.3226   0.5796
  sC0   CM   1       0.3226   0.5796
  sC0   CN   1       0.3226   0.5796
  sC0   CQ   1       0.3226   0.5796
  sC0   CR   1       0.3226   0.5796
  sC0   CT   1       0.3226   0.6537
  sC0   C1   1       0.3226   0.6537
  sC0   C3   1       0.3226   0.6537
  sC0   C4   1       0.3226   0.6537
  sC0   C7   1       0.3226   0.6537
  sC0   C8   1       0.3226   0.6537
  sC0   C9   1       0.3226   0.6537
  sC0   CV   1       0.3226   0.5796
  sC0   CW   1       0.3226   0.5796
  sC0   C*   1       0.3226   0.5796
  sC0   C0   1       0.3052   1.3402
  sC0    F   1       0.3085   0.4882
  sC0    H   1       0.2061   0.2477
  sC0   HB   1       0.2061   0.2477
  sC0   HC   1       0.2851   0.2477
  sC0   H1   1       0.2762   0.2477
  sC0   H2   1       0.2673   0.2477
  sC0   H3   1       0.2584   0.2477
  sC0   HA   1       0.2826   0.2421
  sC0   H4   1       0.2781   0.2421
  sC0   H5   1       0.2737   0.2421
  sC0   HO   1       0.1526   0.0000
  sC0   HS   1       0.2061   0.2477
  sC0   HW   1       0.1526   0.0000
  sC0   HP   1       0.2506   0.2477
  sC0    I   1       0.3620   1.2500
  sC0   Cl   1       0.3727   0.6250
  sC0   Na   1       0.3190   0.1040
  sC0   IB   1       0.5981   0.6250
  sC0   MG   1       0.2232   1.8695
  sC0    N   1       0.3151   0.8149
  sC0   NA   1       0.3151   0.8149
  sC0   NB   1       0.3151   0.8149
  sC0   NC   1       0.3151   0.8149
  sC0   N2   1       0.3151   0.8149
  sC0   N3   1       0.3151   0.8149
  sC0   N*   1       0.3151   0.8149
  sC0    O   1       0.3006   0.9057
  sC0   OB   1       0.3006   0.9057
  sC0   OW   1       0.3102   0.7708
  sC0   OH   1       0.3059   0.9066
  sC0   O3   1       0.3059   0.9066
  sC0   OS   1       0.3026   0.8149
  sC0   O2   1       0.3006   0.9057
  sC0    P   1       0.3397   0.8839
  sC0    S   1       0.3308   0.9883
  sC0   SH   1       0.3308   0.9883
  sC0   CU   1       0.3226   0.5796
  sC0   FE   1       0.1526   0.0000
  sC0    K   1       0.3894   0.0358
  sC0   Rb   1       0.4160   0.0258
  sC0   Li   1       0.2539   0.2674
  sC0   Zn   1       0.2506   0.2210
  sC0 HW_tip4pew   1       0.1526   0.0000
  sC0 OW_tip4pew   1       0.3108   0.7974
  sC0 HW_tip4p   1       0.1526   0.0000
  sC0 OW_tip4p   1       0.3103   0.7781
  sC0 HW_tip5p   1       0.1526   0.0000
  sC0 OW_tip5p   1       0.3086   0.7906
  sC0 HW_tip4pd   1       0.1526   0.0000
  sC0 OW_tip4pd   1       0.3109   0.9658
  sC0   MW   1       0.1526   0.0000
  sC0 MCH3   1       0.1526   0.0000
  sC0 MNH3   1       0.1526   0.0000
  sC0   c3   1       0.3226   0.6537
  sC0   hc   1       0.2851   0.2477
  sC0    c   1       0.3226   0.5796
  sC0    o   1       0.3006   0.9057
  sC0    n   1       0.3151   0.8149
  sC0   h1   1       0.2762   0.2477
  sC0   ca   1       0.3226   0.5796
  sC0   ha   1       0.2826   0.2421
  sC0   n3   1       0.3151   0.8149
  sC0   hx   1       0.2506   0.2477
  sC0   n4   1       0.3151   0.8149
  sC0   hn   1       0.2061   0.2477
   sF   Br   1       0.1559   0.0000
   sF    C   1       0.3259   0.2111
   sF   C6   1       0.3259   0.2111
   sF   C5   1       0.3259   0.2111
   sF   CA   1       0.3259   0.2111
   sF   CB   1       0.3259   0.2111
   sF   CC   1       0.3259   0.2111
   sF   CK   1       0.3259   0.2111
   sF   CM   1       0.3259   0.2111
   sF   CN   1       0.3259   0.2111
   sF   CQ   1       0.3259   0.2111
   sF   CR   1       0.3259   0.2111
   sF   CT   1       0.3259   0.2381
   sF   C1   1       0.3259   0.2381
   sF   C3   1       0.3259   0.2381
   sF   C4   1       0.3259   0.2381
   sF   C7   1       0.3259   0.2381
   sF   C8   1       0.3259   0.2381
   sF   C9   1       0.3259   0.2381
   sF   CV   1       0.3259   0.2111
   sF   CW   1       0.3259   0.2111
   sF   C*   1       0.3259   0.2111
   sF   C0   1       0.3085   0.4882
   sF    F   1       0.3118   0.1778
   sF    H   1       0.2094   0.0902
   sF   HB   1       0.2094   0.0902
   sF   HC   1       0.2884   0.0902
   sF   H1   1       0.2795   0.0902
   sF   H2   1       0.2706   0.0902
   sF   H3   1       0.2617   0.0902
   sF   HA   1       0.2859   0.0882
   sF   H4   1       0.2814   0.0882
   sF   H5   1       0.2770   0.0882
   sF   HO   1       0.1559   0.0000
   sF   HS   1       0.2094   0.0902
   sF   HW   1       0.1559   0.0000
   sF   HP   1       0.2539   0.0902
   sF    I   1       0.3653   0.4553
   sF   Cl   1       0.3760   0.2277
   sF   Na   1       0.3223   0.0379
   sF   IB   1       0.6014   0.2277
   sF   MG   1       0.2265   0.6810
   sF    N   1       0.3184   0.2968
   sF   NA   1       0.3184   0.2968
   sF   NB   1       0.3184   0.2968
   sF   NC   1       0.3184   0.2968
   sF   N2   1       0.3184   0.2968
   sF   N3   1       0.3184   0.2968
   sF   N*   1       0.3184   0.2968
   sF    O   1       0.3039   0.3299
   sF   OB   1       0.3039   0.3299
   sF   OW   1       0.3134   0.2808
   sF   OH   1       0.3092   0.3302
   sF   O3   1       0.3092   0.3302
   sF   OS   1       0.3059   0.2968
   sF   O2   1       0.3039   0.3299
   sF    P   1       0.3430   0.3220
   sF    S   1       0.3341   0.3600
   sF   SH   1       0.3341   0.3600
   sF   CU   1       0.3259   0.2111
   sF   FE   1       0.1559   0.0000
   sF    K   1       0.3927   0.0130
   sF   Rb   1       0.4193   0.0094
   sF   Li   1       0.2572   0.0974
   sF   Zn   1       0.2539   0.0805
   sF HW_tip4pew   1       0.1559   0.0000
   sF OW_tip4pew   1       0.3141   0.2904
   sF HW_tip4p   1       0.1559   0.0000
   sF OW_tip4p   1       0.3136   0.2834
   sF HW_tip5p   1       0.1559   0.0000
   sF OW_tip5p   1       0.3119   0.2880
   sF HW_tip4pd   1       0.1559   0.0000
   sF OW_tip4pd   1       0.3142   0.3518
   sF   MW   1       0.1559   0.0000
   sF MCH3   1       0.1559   0.0000
   sF MNH3   1       0.1559   0.0000
   sF   c3   1       0.3259   0.2381
   sF   hc   1       0.2884   0.0902
   sF    c   1       0.3259   0.2111
   sF    o   1       0.3039   0.3299
   sF    n   1       0.3184   0.2968
   sF   h1   1       0.2795   0.0902
   sF   ca   1       0.3259   0.2111
   sF   ha   1       0.2859   0.0882
   sF   n3   1       0.3184   0.2968
   sF   hx   1       0.2539   0.0902
   sF   n4   1       0.3184   0.2968
   sF   hn   1       0.2094   0.0902
   sH   Br   1       0.0535   0.0000
   sH    C   1       0.2234   0.1071
   sH   C6   1       0.2234   0.1071
   sH   C5   1       0.2234   0.1071
   sH   CA   1       0.2234   0.1071
   sH   CB   1       0.2234   0.1071
   sH   CC   1       0.2234   0.1071
   sH   CK   1       0.2234   0.1071
   sH   CM   1       0.2234   0.1071
   sH   CN   1       0.2234   0.1071
   sH   CQ   1       0.2234   0.1071
   sH   CR   1       0.2234   0.1071
   sH   CT   1       0.2234   0.1208
   sH   C1   1       0.2234   0.1208
   sH   C3   1       0.2234   0.1208
   sH   C4   1       0.2234   0.1208
   sH   C7   1       0.2234   0.1208
   sH   C8   1       0.2234   0.1208
   sH   C9   1       0.2234   0.1208
   sH   CV   1       0.2234   0.1071
   sH   CW   1       0.2234   0.1071
   sH   C*   1       0.2234   0.1071
   sH   C0   1       0.2061   0.2477
   sH    F   1       0.2094   0.0902
   sH    H   1       0.1069   0.0458
   sH   HB   1       0.1069   0.0458
   sH   HC   1       0.1859   0.0458
   sH   H1   1       0.1770   0.0458
   sH   H2   1       0.1681   0.0458
   sH   H3   1       0.1592   0.0458
   sH   HA   1       0.1834   0.0447
   sH   H4   1       0.1790   0.0447
   sH   H5   1       0.1745   0.0447
   sH   HO   1       0.0535   0.0000
   sH   HS   1       0.1069   0.0458
   sH   HW   1       0.0535   0.0000
   sH   HP   1       0.1515   0.0458
   sH    I   1       0.2628   0.2310
   sH   Cl   1       0.2735   0.1155
   sH   Na   1       0.2199   0.0192
   sH   IB   1       0.4989   0.1155
   sH   MG   1       0.1241   0.3455
   sH    N   1       0.2160   0.1506
   sH   NA   1       0.2160   0.1506
   sH   NB   1       0.2160   0.1506
   sH   NC   1       0.2160   0.1506
   sH   N2   1       0.2160   0.1506
   sH   N3   1       0.2160   0.1506
   sH   N*   1       0.2160   0.1506
   sH    O   1       0.2014   0.1674
   sH   OB   1       0.2014   0.1674
   sH   OW   1       0.2110   0.1424
   sH   OH   1       0.2068   0.1675
   sH   O3   1       0.2068   0.1675
   sH   OS   1       0.2035   0.1506
   sH   O2   1       0.2014   0.1674
   sH    P   1       0.2405   0.1633
   sH    S   1       0.2316   0.1826
   sH   SH   1       0.2316   0.1826
   sH   CU   1       0.2234   0.1071
   sH   FE   1       0.0535   0.0000
   sH    K   1       0.2903   0.0066
   sH   Rb   1       0.3168   0.0048
   sH   Li   1       0.1547   0.0494
   sH   Zn   1       0.1515   0.0408
   sH HW_tip4pew   1       0.0535   0.0000
   sH OW_tip4pew   1       0.2117   0.1473
   sH HW_tip4p   1       0.0535   0.0000
   sH OW_tip4p   1       0.2111   0.1438
   sH HW_tip5p   1       0.0535   0.0000
   sH OW_tip5p   1       0.2095   0.1461
   sH HW_tip4pd   1       0.0535   0.0000
   sH OW_tip4pd   1       0.2117   0.1785
   sH   MW   1       0.0535   0.0000
   sH MCH3   1       0.0535   0.0000
   sH MNH3   1       0.0535   0.0000
   sH   c3   1       0.2234   0.1208
   sH   hc   1       0.1859   0.0458
   sH    c   1       0.2234   0.1071
   sH    o   1       0.2014   0.1674
   sH    n   1       0.2160   0.1506
   sH   h1   1       0.1770   0.0458
   sH   ca   1       0.2234   0.1071
   sH   ha   1       0.1834   0.0447
   sH   n3   1       0.2160   0.1506
   sH   hx   1       0.1515   0.0458
   sH   n4   1       0.2160   0.1506
   sH   hn   1       0.1069   0.0458
  sHB   Br   1       0.0535   0.0000
  sHB    C   1       0.2234   0.1071
  sHB   C6   1       0.2234   0.1071
  sHB   C5   1       0.2234   0.1071
  sHB   CA   1       0.2234   0.1071
  sHB   CB   1       0.2234   0.1071
  sHB   CC   1       0.2234   0.1071
  sHB   CK   1       0.2234   0.1071
  sHB   CM   1       0.2234   0.1071
  sHB   CN   1       0.2234   0.1071
  sHB   CQ   1       0.2234   0.1071
  sHB   CR   1       0.2234   0.1071
  sHB   CT   1       0.2234   0.1208
  sHB   C1   1       0.2234   0.1208
  sHB   C3   1       0.2234   0.1208
  sHB   C4   1       0.2234   0.1208
  sHB   C7   1       0.2234   0.1208
  sHB   C8   1       0.2234   0.1208
  sHB   C9   1       0.2234   0.1208
  sHB   CV   1       0.2234   0.1071
  sHB   CW   1       0.2234   0.1071
  sHB   C*   1       0.2234   0.1071
  sHB   C0   1       0.2061   0.2477
  sHB    F   1       0.2094   0.0902
  sHB    H   1       0.1069   0.0458
  sHB   HB   1       0.1069   0.0458
  sHB   HC   1       0.1859   0.0458
  sHB   H1   1       0.1770   0.0458
  sHB   H2   1       0.1681   0.0458
  sHB   H3   1       0.1592   0.0458
  sHB   HA   1       0.1834   0.0447
  sHB   H4   1       0.1790   0.0447
  sHB   H5   1       0.1745   0.0447
  sHB   HO   1       0.0535   0.0000
  sHB   HS   1       0.1069   0.0458
  sHB   HW   1       0.0535   0.0000
  sHB   HP   1       0.1515   0.0458
  sHB    I   1       0.2628   0.2310
  sHB   Cl   1       0.2735   0.1155
  sHB   Na   1       0.2199   0.0192
  sHB   IB   1       0.4989   0.1155
  sHB   MG   1       0.1241   0.3455
  sHB    N   1       0.2160   0.1506
  sHB   NA   1       0.2160   0.1506
  sHB   NB   1       0.2160   0.1506
  sHB   NC   1       0.2160   0.1506
  sHB   N2   1       0.2160   0.1506
  sHB   N3   1       0.2160   0.1506
  sHB   N*   1       0.2160   0.1506
  sHB    O   1       0.2014   0.1674
  sHB   OB   1       0.2014   0.1674
  sHB   OW   1       0.2110   0.1424
  sHB   OH   1       0.2068   0.1675
  sHB   O3   1       0.2068   0.1675
  sHB   OS   1       0.2035   0.1506
  sHB   O2   1       0.2014   0.1674
  sHB    P   1       0.2405   0.1633
  sHB    S   1       0.2316   0.1826
  sHB   SH   1       0.2316   0.1826
  sHB   CU   1       0.2234   0.1071
  sHB   FE   1       0.0535   0.0000
  sHB    K   1       0.2903   0.0066
  sHB   Rb   1       0.3168   0.0048
  sHB   Li   1       0.1547   0.0494
  sHB   Zn   1       0.1515   0.0408
  sHB HW_tip4pew   1       0.0535   0.0000
  sHB OW_tip4pew   1       0.2117   0.1473
  sHB HW_tip4p   1       0.0535   0.0000
  sHB OW_tip4p   1       0.2111   0.1438
  sHB HW_tip5p   1       0.0535   0.0000
  sHB OW_tip5p   1       0.2095   0.1461
  sHB HW_tip4pd   1       0.0535   0.0000
  sHB OW_tip4pd   1       0.2117   0.1785
  sHB   MW   1       0.0535   0.0000
  sHB MCH3   1       0.0535   0.0000
  sHB MNH3   1       0.0535   0.0000
  sHB   c3   1       0.2234   0.1208
  sHB   hc   1       0.1859   0.0458
  sHB    c   1       0.2234   0.1071
  sHB    o   1       0.2014   0.1674
  sHB    n   1       0.2160   0.1506
  sHB   h1   1       0.1770   0.0458
  sHB   ca   1       0.2234   0.1071
  sHB   ha   1       0.1834   0.0447
  sHB   n3   1       0.2160   0.1506
  sHB   hx   1       0.1515   0.0458
  sHB   n4   1       0.2160   0.1506
  sHB   hn   1       0.1069   0.0458
  sHC   Br   1       0.1325   0.0000
  sHC    C   1       0.3025   0.1071
  sHC   C6   1       0.3025   0.1071
  sHC   C5   1       0.3025   0.1071
  sHC   CA   1       0.3025   0.1071
  sHC   CB   1       0.3025   0.1071
  sHC   CC   1       0.3025   0.1071
  sHC   CK   1       0.3025   0.1071
  sHC   CM   1       0.3025   0.1071
  sHC   CN   1       0.3025   0.1071
  sHC   CQ   1       0.3025   0.1071
  sHC   CR   1       0.3025   0.1071
  sHC   CT   1       0.3025   0.1208
  sHC   C1   1       0.3025   0.1208
  sHC   C3   1       0.3025   0.1208
  sHC   C4   1       0.3025   0.1208
  sHC   C7   1       0.3025   0.1208
  sHC   C8   1       0.3025   0.1208
  sHC   C9   1       0.3025   0.1208
  sHC   CV   1       0.3025   0.1071
  sHC   CW   1       0.3025   0.1071
  sHC   C*   1       0.3025   0.1071
  sHC   C0   1       0.2851   0.2477
  sHC    F   1       0.2884   0.0902
  sHC    H   1       0.1859   0.0458
  sHC   HB   1       0.1859   0.0458
  sHC   HC   1       0.2650   0.0458
  sHC   H1   1       0.2560   0.0458
  sHC   H2   1       0.2471   0.0458
  sHC   H3   1       0.2382   0.0458
  sHC   HA   1       0.2625   0.0447
  sHC   H4   1       0.2580   0.0447
  sHC   H5   1       0.2535   0.0447
  sHC   HO   1       0.1325   0.0000
  sHC   HS   1       0.1859   0.0458
  sHC   HW   1       0.1325   0.0000
  sHC   HP   1       0.2305   0.0458
  sHC    I   1       0.3418   0.2310
  sHC   Cl   1       0.3525   0.1155
  sHC   Na   1       0.2989   0.0192
  sHC   IB   1       0.5779   0.1155
  sHC   MG   1       0.2031   0.3455
  sHC    N   1       0.2950   0.1506
  sHC   NA   1       0.2950   0.1506
  sHC   NB   1       0.2950   0.1506
  sHC   NC   1       0.2950   0.1506
  sHC   N2   1       0.2950   0.1506
  sHC   N3   1       0.2950   0.1506
  sHC   N*   1       0.2950   0.1506
  sHC    O   1       0.2805   0.1674
  sHC   OB   1       0.2805   0.1674
  sHC   OW   1       0.2900   0.1424
  sHC   OH   1       0.2858   0.1675
  sHC   O3   1       0.2858   0.1675
  sHC   OS   1       0.2825   0.1506
  sHC   O2   1       0.2805   0.1674
  sHC    P   1       0.3196   0.1633
  sHC    S   1       0.3107   0.1826
  sHC   SH   1       0.3107   0.1826
  sHC   CU   1       0.3025   0.1071
  sHC   FE   1       0.1325   0.0000
  sHC    K   1       0.3693   0.0066
  sHC   Rb   1       0.3958   0.0048
  sHC   Li   1       0.2338   0.0494
  sHC   Zn   1       0.2305   0.0408
  sHC HW_tip4pew   1       0.1325   0.0000
  sHC OW_tip4pew   1       0.2907   0.1473
  sHC HW_tip4p   1       0.1325   0.0000
  sHC OW_tip4p   1       0.2902   0.1438
  sHC HW_tip5p   1       0.1325   0.0000
  sHC OW_tip5p   1       0.2885   0.1461
  sHC HW_tip4pd   1       0.1325   0.0000
  sHC OW_tip4pd   1       0.2907   0.1785
  sHC   MW   1       0.1325   0.0000
  sHC MCH3   1       0.1325   0.0000
  sHC MNH3   1       0.1325   0.0000
  sHC   c3   1       0.3025   0.1208
  sHC   hc   1       0.2650   0.0458
  sHC    c   1       0.3025   0.1071
  sHC    o   1       0.2805   0.1674
  sHC    n   1       0.2950   0.1506
  sHC   h1   1       0.2560   0.0458
  sHC   ca   1       0.3025   0.1071
  sHC   ha   1       0.2625   0.0447
  sHC   n3   1       0.2950   0.1506
  sHC   hx   1       0.2305   0.0458
  sHC   n4   1       0.2950   0.1506
  sHC   hn   1       0.1859   0.0458
  sH1   Br   1       0.1236   0.0000
  sH1    C   1       0.2936   0.1071
  sH1   C6   1       0.2936   0.1071
  sH1   C5   1       0.2936   0.1071
  sH1   CA   1       0.2936   0.1071
  sH1   CB   1       0.2936   0.1071
  sH1   CC   1       0.2936   0.1071
  sH1   CK   1       0.2936   0.1071
  sH1   CM   1       0.2936   0.1071
  sH1   CN   1       0.2936   0.1071
  sH1   CQ   1       0.2936   0.1071
  sH1   CR   1       0.2936   0.1071
  sH1   CT   1       0.2936   0.1208
  sH1   C1   1       0.2936   0.1208
  sH1   C3   1       0.2936   0.1208
  sH1   C4   1       0.2936   0.1208
  sH1   C7   1       0.2936   0.1208
  sH1   C8   1       0.2936   0.1208
  sH1   C9   1       0.2936   0.1208
  sH1   CV   1       0.2936   0.1071
  sH1   CW   1       0.2936   0.1071
  sH1   C*   1       0.2936   0.1071
  sH1   C0   1       0.2762   0.2477
  sH1    F   1       0.2795   0.0902
  sH1    H   1       0.1770   0.0458
  sH1   HB   1       0.1770   0.0458
  sH1   HC   1       0.2560   0.0458
  sH1   H1   1       0.2471   0.0458
  sH1   H2   1       0.2382   0.0458
  sH1   H3   1       0.2293   0.0458
  sH1   HA   1       0.2535   0.0447
  sH1   H4   1       0.2491   0.0447
  sH1   H5   1       0.2446   0.0447
  sH1   HO   1       0.1236   0.0000
  sH1   HS   1       0.1770   0.0458
  sH1   HW   1       0.1236   0.0000
  sH1   HP   1       0.2216   0.0458
  sH1    I   1       0.3329   0.2310
  sH1   Cl   1       0.3436   0.1155
  sH1   Na   1       0.2900   0.0192
  sH1   IB   1       0.5690   0.1155
  sH1   MG   1       0.1942   0.3455
  sH1    N   1       0.2861   0.1506
  sH1   NA   1       0.2861   0.1506
  sH1   NB   1       0.2861   0.1506
  sH1   NC   1       0.2861   0.1506
  sH1   N2   1       0.2861   0.1506
  sH1   N3   1       0.2861   0.1506
  sH1   N*   1       0.2861   0.1506
  sH1    O   1       0.2716   0.1674
  sH1   OB   1       0.2716   0.1674
  sH1   OW   1       0.2811   0.1424
  sH1   OH   1       0.2769   0.1675
  sH1   O3   1       0.2769   0.1675
  sH1   OS   1       0.2736   0.1506
  sH1   O2   1       0.2716   0.1674
  sH1    P   1       0.3107   0.1633
  sH1    S   1       0.3017   0.1826
  sH1   SH   1       0.3017   0.1826
  sH1   CU   1       0.2936   0.1071
  sH1   FE   1       0.1236   0.0000
  sH1    K   1       0.3604   0.0066
  sH1   Rb   1       0.3869   0.0048
  sH1   Li   1       0.2249   0.0494
  sH1   Zn   1       0.2216   0.0408
  sH1 HW_tip4pew   1       0.1236   0.0000
  sH1 OW_tip4pew   1       0.2818   0.1473
  sH1 HW_tip4p   1       0.1236   0.0000
  sH1 OW_tip4p   1       0.2812   0.1438
  sH1 HW_tip5p   1       0.1236   0.0000
  sH1 OW_tip5p   1       0.2796   0.1461
  sH1 HW_tip4pd   1       0.1236   0.0000
  sH1 OW_tip4pd   1       0.2818   0.1785
  sH1   MW   1       0.1236   0.0000
  sH1 MCH3   1       0.1236   0.0000
  sH1 MNH3   1       0.1236   0.0000
  sH1   c3   1       0.2936   0.1208
  sH1   hc   1       0.2560   0.0458
  sH1    c   1       0.2936   0.1071
  sH1    o   1       0.2716   0.1674
  sH1    n   1       0.2861   0.1506
  sH1   h1   1       0.2471   0.0458
  sH1   ca   1       0.2936   0.1071
  sH1   ha   1       0.2535   0.0447
  sH1   n3   1       0.2861   0.1506
  sH1   hx   1       0.2216   0.0458
  sH1   n4   1       0.2861   0.1506
  sH1   hn   1       0.1770   0.0458
  sH2   Br   1       0.1147   0.0000
  sH2    C   1       0.2846   0.1071
  sH2   C6   1       0.2846   0.1071
  sH2   C5   1       0.2846   0.1071
  sH2   CA   1       0.2846   0.1071
  sH2   CB   1       0.2846   0.1071
  sH2   CC   1       0.2846   0.1071
  sH2   CK   1       0.2846   0.1071
  sH2   CM   1       0.2846   0.1071
  sH2   CN   1       0.2846   0.1071
  sH2   CQ   1       0.2846   0.1071
  sH2   CR   1       0.2846   0.1071
  sH2   CT   1       0.2846   0.1208
  sH2   C1   1       0.2846   0.1208
  sH2   C3   1       0.2846   0.1208
  sH2   C4   1       0.2846   0.1208
  sH2   C7   1       0.2846   0.1208
  sH2   C8   1       0.2846   0.1208
  sH2   C9   1       0.2846   0.1208
  sH2   CV   1       0.2846   0.1071
  sH2   CW   1       0.2846   0.1071
  sH2   C*   1       0.2846   0.1071
  sH2   C0   1       0.2673   0.2477
  sH2    F   1       0.2706   0.0902
  sH2    H   1       0.1681   0.0458
  sH2   HB   1       0.1681   0.0458
  sH2   HC   1       0.2471   0.0458
  sH2   H1   1       0.2382   0.0458
  sH2   H2   1       0.2293   0.0458
  sH2   H3   1       0.2204   0.0458
  sH2   HA   1       0.2446   0.0447
  sH2   H4   1       0.2402   0.0447
  sH2   H5   1       0.2357   0.0447
  sH2   HO   1       0.1147   0.0000
  sH2   HS   1       0.1681   0.0458
  sH2   HW   1       0.1147   0.0000
  sH2   HP   1       0.2127   0.0458
  sH2    I   1       0.3240   0.2310
  sH2   Cl   1       0.3347   0.1155
  sH2   Na   1       0.2811   0.0192
  sH2   IB   1       0.5601   0.1155
  sH2   MG   1       0.1853   0.3455
  sH2    N   1       0.2772   0.1506
  sH2   NA   1       0.2772   0.1506
  sH2   NB   1       0.2772   0.1506
  sH2   NC   1       0.2772   0.1506
  sH2   N2   1       0.2772   0.1506
  sH2   N3   1       0.2772   0.1506
  sH2   N*   1       0.2772   0.1506
  sH2    O   1       0.2627   0.1674
  sH2   OB   1       0.2627   0.1674
  sH2   OW   1       0.2722   0.1424
  sH2   OH   1       0.2680   0.1675
  sH2   O3   1       0.2680   0.1675
  sH2   OS   1       0.2647   0.1506
  sH2   O2   1       0.2627   0.1674
  sH2    P   1       0.3017   0.1633
  sH2    S   1       0.2928   0.1826
  sH2   SH   1       0.2928   0.1826
  sH2   CU   1       0.2846   0.1071
  sH2   FE   1       0.1147   0.0000
  sH2    K   1       0.3515   0.0066
  sH2   Rb   1       0.3780   0.0048
  sH2   Li   1       0.2160   0.0494
  sH2   Zn   1       0.2127   0.0408
  sH2 HW_tip4pew   1       0.1147   0.0000
  sH2 OW_tip4pew   1       0.2729   0.1473
  sH2 HW_tip4p   1       0.1147   0.0000
  sH2 OW_tip4p   1       0.2723   0.1438
  sH2 HW_tip5p   1       0.1147   0.0000
  sH2 OW_tip5p   1       0.2707   0.1461
  sH2 HW_tip4pd   1       0.1147   0.0000
  sH2 OW_tip4pd   1       0.2729   0.1785
  sH2   MW   1       0.1147   0.0000
  sH2 MCH3   1       0.1147   0.0000
  sH2 MNH3   1       0.1147   0.0000
  sH2   c3   1       0.2846   0.1208
  sH2   hc   1       0.2471   0.0458
  sH2    c   1       0.2846   0.1071
  sH2    o   1       0.2627   0.1674
  sH2    n   1       0.2772   0.1506
  sH2   h1   1       0.2382   0.0458
  sH2   ca   1       0.2846   0.1071
  sH2   ha   1       0.2446   0.0447
  sH2   n3   1       0.2772   0.1506
  sH2   hx   1       0.2127   0.0458
  sH2   n4   1       0.2772   0.1506
  sH2   hn   1       0.1681   0.0458
  sH3   Br   1       0.1057   0.0000
  sH3    C   1       0.2757   0.1071
  sH3   C6   1       0.2757   0.1071
  sH3   C5   1       0.2757   0.1071
  sH3   CA   1       0.2757   0.1071
  sH3   CB   1       0.2757   0.1071
  sH3   CC   1       0.2757   0.1071
  sH3   CK   1       0.2757   0.1071
  sH3   CM   1       0.2757   0.1071
  sH3   CN   1       0.2757   0.1071
  sH3   CQ   1       0.2757   0.1071
  sH3   CR   1       0.2757   0.1071
  sH3   CT   1       0.2757   0.1208
  sH3   C1   1       0.2757   0.1208
  sH3   C3   1       0.2757   0.1208
  sH3   C4   1       0.2757   0.1208
  sH3   C7   1       0.2757   0.1208
  sH3   C8   1       0.2757   0.1208
  sH3   C9   1       0.2757   0.1208
  sH3   CV   1       0.2757   0.1071
  sH3   CW   1       0.2757   0.1071
  sH3   C*   1       0.2757   0.1071
  sH3   C0   1       0.2584   0.2477
  sH3    F   1       0.2617   0.0902
  sH3    H   1       0.1592   0.0458
  sH3   HB   1       0.1592   0.0458
  sH3   HC   1       0.2382   0.0458
  sH3   H1   1       0.2293   0.0458
  sH3   H2   1       0.2204   0.0458
  sH3   H3   1       0.2115   0.0458
  sH3   HA   1       0.2357   0.0447
  sH3   H4   1       0.2313   0.0447
  sH3   H5   1       0.2268   0.0447
  sH3   HO   1       0.1057   0.0000
  sH3   HS   1       0.1592   0.0458
  sH3   HW   1       0.1057   0.0000
  sH3   HP   1       0.2037   0.0458
  sH3    I   1       0.3151   0.2310
  sH3   Cl   1       0.3258   0.1155
  sH3   Na   1       0.2722   0.0192
  sH3   IB   1       0.5512   0.1155
  sH3   MG   1       0.1764   0.3455
  sH3    N   1       0.2682   0.1506
  sH3   NA   1       0.2682   0.1506
  sH3   NB   1       0.2682   0.1506
  sH3   NC   1       0.2682   0.1506
  sH3   N2   1       0.2682   0.1506
  sH3   N3   1       0.2682   0.1506
  sH3   N*   1       0.2682   0.1506
  sH3    O   1       0.2537   0.1674
  sH3   OB   1       0.2537   0.1674
  sH3   OW   1       0.2633   0.1424
  sH3   OH   1       0.2591   0.1675
  sH3   O3   1       0.2591   0.1675
  sH3   OS   1       0.2558   0.1506
  sH3   O2   1       0.2537   0.1674
  sH3    P   1       0.2928   0.1633
  sH3    S   1       0.2839   0.1826
  sH3   SH   1       0.2839   0.1826
  sH3   CU   1       0.2757   0.1071
  sH3   FE   1       0.1057   0.0000
  sH3    K   1       0.3426   0.0066
  sH3   Rb   1       0.3691   0.0048
  sH3   Li   1       0.2070   0.0494
  sH3   Zn   1       0.2037   0.0408
  sH3 HW_tip4pew   1       0.1057   0.0000
  sH3 OW_tip4pew   1       0.2640   0.1473
  sH3 HW_tip4p   1       0.1057   0.0000
  sH3 OW_tip4p   1       0.2634   0.1438
  sH3 HW_tip5p   1       0.1057   0.0000
  sH3 OW_tip5p   1       0.2617   0.1461
  sH3 HW_tip4pd   1       0.1057   0.0000
  sH3 OW_tip4pd   1       0.2640   0.1785
  sH3   MW   1       0.1057   0.0000
  sH3 MCH3   1       0.1057   0.0000
  sH3 MNH3   1       0.1057   0.0000
  sH3   c3   1       0.2757   0.1208
  sH3   hc   1       0.2382   0.0458
  sH3    c   1       0.2757   0.1071
  sH3    o   1       0.2537   0.1674
  sH3    n   1       0.2682   0.1506
  sH3   h1   1       0.2293   0.0458
  sH3   ca   1       0.2757   0.1071
  sH3   ha   1       0.2357   0.0447
  sH3   n3   1       0.2682   0.1506
  sH3   hx   1       0.2037   0.0458
  sH3   n4   1       0.2682   0.1506
  sH3   hn   1       0.1592   0.0458
  sHA   Br   1       0.1300   0.0000
  sHA    C   1       0.3000   0.1047
  sHA   C6   1       0.3000   0.1047
  sHA   C5   1       0.3000   0.1047
  sHA   CA   1       0.3000   0.1047
  sHA   CB   1       0.3000   0.1047
  sHA   CC   1       0.3000   0.1047
  sHA   CK   1       0.3000   0.1047
  sHA   CM   1       0.3000   0.1047
  sHA   CN   1       0.3000   0.1047
  sHA   CQ   1       0.3000   0.1047
  sHA   CR   1       0.3000   0.1047
  sHA   CT   1       0.3000   0.1181
  sHA   C1   1       0.3000   0.1181
  sHA   C3   1       0.3000   0.1181
  sHA   C4   1       0.3000   0.1181
  sHA   C7   1       0.3000   0.1181
  sHA   C8   1       0.3000   0.1181
  sHA   C9   1       0.3000   0.1181
  sHA   CV   1       0.3000   0.1047
  sHA   CW   1       0.3000   0.1047
  sHA   C*   1       0.3000   0.1047
  sHA   C0   1       0.2826   0.2421
  sHA    F   1       0.2859   0.0882
  sHA    H   1       0.1834   0.0447
  sHA   HB   1       0.1834   0.0447
  sHA   HC   1       0.2625   0.0447
  sHA   H1   1       0.2535   0.0447
  sHA   H2   1       0.2446   0.0447
  sHA   H3   1       0.2357   0.0447
  sHA   HA   1       0.2600   0.0437
  sHA   H4   1       0.2555   0.0437
  sHA   H5   1       0.2511   0.0437
  sHA   HO   1       0.1300   0.0000
  sHA   HS   1       0.1834   0.0447
  sHA   HW   1       0.1300   0.0000
  sHA   HP   1       0.2280   0.0447
  sHA    I   1       0.3393   0.2258
  sHA   Cl   1       0.3500   0.1129
  sHA   Na   1       0.2964   0.0188
  sHA   IB   1       0.5754   0.1129
  sHA   MG   1       0.2006   0.3377
  sHA    N   1       0.2925   0.1472
  sHA   NA   1       0.2925   0.1472
  sHA   NB   1       0.2925   0.1472
  sHA   NC   1       0.2925   0.1472
  sHA   N2   1       0.2925   0.1472
  sHA   N3   1       0.2925   0.1472
  sHA   N*   1       0.2925   0.1472
  sHA    O   1       0.2780   0.1636
  sHA   OB   1       0.2780   0.1636
  sHA   OW   1       0.2875   0.1392
  sHA   OH   1       0.2833   0.1638
  sHA   O3   1       0.2833   0.1638
  sHA   OS   1       0.2800   0.1472
  sHA   O2   1       0.2780   0.1636
  sHA    P   1       0.3171   0.1597
  sHA    S   1       0.3082   0.1785
  sHA   SH   1       0.3082   0.1785
  sHA   CU   1       0.3000   0.1047
  sHA   FE   1       0.1300   0.0000
  sHA    K   1       0.3668   0.0065
  sHA   Rb   1       0.3933   0.0047
  sHA   Li   1       0.2313   0.0483
  sHA   Zn   1       0.2280   0.0399
  sHA HW_tip4pew   1       0.1300   0.0000
  sHA OW_tip4pew   1       0.2882   0.1440
  sHA HW_tip4p   1       0.1300   0.0000
  sHA OW_tip4p   1       0.2877   0.1405
  sHA HW_tip5p   1       0.1300   0.0000
  sHA OW_tip5p   1       0.2860   0.1428
  sHA HW_tip4pd   1       0.1300   0.0000
  sHA OW_tip4pd   1       0.2882   0.1744
  sHA   MW   1       0.1300   0.0000
  sHA MCH3   1       0.1300   0.0000
  sHA MNH3   1       0.1300   0.0000
  sHA   c3   1       0.3000   0.1181
  sHA   hc   1       0.2625   0.0447
  sHA    c   1       0.3000   0.1047
  sHA    o   1       0.2780   0.1636
  sHA    n   1       0.2925   0.1472
  sHA   h1   1       0.2535   0.0447
  sHA   ca   1       0.3000   0.1047
  sHA   ha   1       0.2600   0.0437
  sHA   n3   1       0.2925   0.1472
  sHA   hx   1       0.2280   0.0447
  sHA   n4   1       0.2925   0.1472
  sHA   hn   1       0.1834   0.0447
  sH4   Br   1       0.1255   0.0000
  sH4    C   1       0.2955   0.1047
  sH4   C6   1       0.2955   0.1047
  sH4   C5   1       0.2955   0.1047
  sH4   CA   1       0.2955   0.1047
  sH4   CB   1       0.2955   0.1047
  sH4   CC   1       0.2955   0.1047
  sH4   CK   1       0.2955   0.1047
  sH4   CM   1       0.2955   0.1047
  sH4   CN   1       0.2955   0.1047
  sH4   CQ   1       0.2955   0.1047
  sH4   CR   1       0.2955   0.1047
  sH4   CT   1       0.2955   0.1181
  sH4   C1   1       0.2955   0.1181
  sH4   C3   1       0.2955   0.1181
  sH4   C4   1       0.2955   0.1181
  sH4   C7   1       0.2955   0.1181
  sH4   C8   1       0.2955   0.1181
  sH4   C9   1       0.2955   0.1181
  sH4   CV   1       0.2955   0.1047
  sH4   CW   1       0.2955   0.1047
  sH4   C*   1       0.2955   0.1047
  sH4   C0   1       0.2781   0.2421
  sH4    F   1       0.2814   0.0882
  sH4    H   1       0.1790   0.0447
  sH4   HB   1       0.1790   0.0447
  sH4   HC   1       0.2580   0.0447
  sH4   H1   1       0.2491   0.0447
  sH4   H2   1       0.2402   0.0447
  sH4   H3   1       0.2313   0.0447
  sH4   HA   1       0.2555   0.0437
  sH4   H4   1       0.2511   0.0437
  sH4   H5   1       0.2466   0.0437
  sH4   HO   1       0.1255   0.0000
  sH4   HS   1       0.1790   0.0447
  sH4   HW   1       0.1255   0.0000
  sH4   HP   1       0.2235   0.0447
  sH4    I   1       0.3349   0.2258
  sH4   Cl   1       0.3456   0.1129
  sH4   Na   1       0.2919   0.0188
  sH4   IB   1       0.5710   0.1129
  sH4   MG   1       0.1961   0.3377
  sH4    N   1       0.2880   0.1472
  sH4   NA   1       0.2880   0.1472
  sH4   NB   1       0.2880   0.1472
  sH4   NC   1       0.2880   0.1472
  sH4   N2   1       0.2880   0.1472
  sH4   N3   1       0.2880   0.1472
  sH4   N*   1       0.2880   0.1472
  sH4    O   1       0.2735   0.1636
  sH4   OB   1       0.2735   0.1636
  sH4   OW   1       0.2831   0.1392
  sH4   OH   1       0.2789   0.1638
  sH4   O3   1       0.2789   0.1638
  sH4   OS   1       0.2755   0.1472
  sH4   O2   1       0.2735   0.1636
  sH4    P   1       0.3126   0.1597
  sH4    S   1       0.3037   0.1785
  sH4   SH   1       0.3037   0.1785
  sH4   CU   1       0.2955   0.1047
  sH4   FE   1       0.1255   0.0000
  sH4    K   1       0.3623   0.0065
  sH4   Rb   1       0.3889   0.0047
  sH4   Li   1       0.2268   0.0483
  sH4   Zn   1       0.2235   0.0399
  sH4 HW_tip4pew   1       0.1255   0.0000
  sH4 OW_tip4pew   1       0.2837   0.1440
  sH4 HW_tip4p   1       0.1255   0.0000
  sH4 OW_tip4p   1       0.2832   0.1405
  sH4 HW_tip5p   1       0.1255   0.0000
  sH4 OW_tip5p   1       0.2815   0.1428
  sH4 HW_tip4pd   1       0.1255   0.0000
  sH4 OW_tip4pd   1       0.2838   0.1744
  sH4   MW   1       0.1255   0.0000
  sH4 MCH3   1       0.1255   0.0000
  sH4 MNH3   1       0.1255   0.0000
  sH4   c3   1       0.2955   0.1181
  sH4   hc   1       0.2580   0.0447
  sH4    c   1       0.2955   0.1047
  sH4    o   1       0.2735   0.1636
  sH4    n   1       0.2880   0.1472
  sH4   h1   1       0.2491   0.0447
  sH4   ca   1       0.2955   0.1047
  sH4   ha   1       0.2555   0.0437
  sH4   n3   1       0.2880   0.1472
  sH4   hx   1       0.2235   0.0447
  sH4   n4   1       0.2880   0.1472
  sH4   hn   1       0.1790   0.0447
  sH5   Br   1       0.1211   0.0000
  sH5    C   1       0.2911   0.1047
  sH5   C6   1       0.2911   0.1047
  sH5   C5   1       0.2911   0.1047
  sH5   CA   1       0.2911   0.1047
  sH5   CB   1       0.2911   0.1047
  sH5   CC   1       0.2911   0.1047
  sH5   CK   1       0.2911   0.1047
  sH5   CM   1       0.2911   0.1047
  sH5   CN   1       0.2911   0.1047
  sH5   CQ   1       0.2911   0.1047
  sH5   CR   1       0.2911   0.1047
  sH5   CT   1       0.2911   0.1181
  sH5   C1   1       0.2911   0.1181
  sH5   C3   1       0.2911   0.1181
  sH5   C4   1       0.2911   0.1181
  sH5   C7   1       0.2911   0.1181
  sH5   C8   1       0.2911   0.1181
  sH5   C9   1       0.2911   0.1181
  sH5   CV   1       0.2911   0.1047
  sH5   CW   1       0.2911   0.1047
  sH5   C*   1       0.2911   0.1047
  sH5   C0   1       0.2737   0.2421
  sH5    F   1       0.2770   0.0882
  sH5    H   1       0.1745   0.0447
  sH5   HB   1       0.1745   0.0447
  sH5   HC   1       0.2535   0.0447
  sH5   H1   1       0.2446   0.0447
  sH5   H2   1       0.2357   0.0447
  sH5   H3   1       0.2268   0.0447
  sH5   HA   1       0.2511   0.0437
  sH5   H4   1       0.2466   0.0437
  sH5   H5   1       0.2421   0.0437
  sH5   HO   1       0.1211   0.0000
  sH5   HS   1       0.1745   0.0447
  sH5   HW   1       0.1211   0.0000
  sH5   HP   1       0.2191   0.0447
  sH5    I   1       0.3304   0.2258
  sH5   Cl   1       0.3411   0.1129
  sH5   Na   1       0.2875   0.0188
  sH5   IB   1       0.5665   0.1129
  sH5   MG   1       0.1917   0.3377
  sH5    N   1       0.2836   0.1472
  sH5   NA   1       0.2836   0.1472
  sH5   NB   1       0.2836   0.1472
  sH5   NC   1       0.2836   0.1472
  sH5   N2   1       0.2836   0.1472
  sH5   N3   1       0.2836   0.1472
  sH5   N*   1       0.2836   0.1472
  sH5    O   1       0.2691   0.1636
  sH5   OB   1       0.2691   0.1636
  sH5   OW   1       0.2786   0.1392
  sH5   OH   1       0.2744   0.1638
  sH5   O3   1       0.2744   0.1638
  sH5   OS   1       0.2711   0.1472
  sH5   O2   1       0.2691   0.1636
  sH5    P   1       0.3082   0.1597
  sH5    S   1       0.2993   0.1785
  sH5   SH   1       0.2993   0.1785
  sH5   CU   1       0.2911   0.1047
  sH5   FE   1       0.1211   0.0000
  sH5    K   1       0.3579   0.0065
  sH5   Rb   1       0.3844   0.0047
  sH5   Li   1       0.2224   0.0483
  sH5   Zn   1       0.2191   0.0399
  sH5 HW_tip4pew   1       0.1211   0.0000
  sH5 OW_tip4pew   1       0.2793   0.1440
  sH5 HW_tip4p   1       0.1211   0.0000
  sH5 OW_tip4p   1       0.2788   0.1405
  sH5 HW_tip5p   1       0.1211   0.0000
  sH5 OW_tip5p   1       0.2771   0.1428
  sH5 HW_tip4pd   1       0.1211   0.0000
  sH5 OW_tip4pd   1       0.2793   0.1744
  sH5   MW   1       0.1211   0.0000
  sH5 MCH3   1       0.1211   0.0000
  sH5 MNH3   1       0.1211   0.0000
  sH5   c3   1       0.2911   0.1181
  sH5   hc   1       0.2535   0.0447
  sH5    c   1       0.2911   0.1047
  sH5    o   1       0.2691   0.1636
  sH5    n   1       0.2836   0.1472
  sH5   h1   1       0.2446   0.0447
  sH5   ca   1       0.2911   0.1047
  sH5   ha   1       0.2511   0.0437
  sH5   n3   1       0.2836   0.1472
  sH5   hx   1       0.2191   0.0447
  sH5   n4   1       0.2836   0.1472
  sH5   hn   1       0.1745   0.0447
  sHO   Br   1       0.0000   0.0000
  sHO    C   1       0.1700   0.0000
  sHO   C6   1       0.1700   0.0000
  sHO   C5   1       0.1700   0.0000
  sHO   CA   1       0.1700   0.0000
  sHO   CB   1       0.1700   0.0000
  sHO   CC   1       0.1700   0.0000
  sHO   CK   1       0.1700   0.0000
  sHO   CM   1       0.1700   0.0000
  sHO   CN   1       0.1700   0.0000
  sHO   CQ   1       0.1700   0.0000
  sHO   CR   1       0.1700   0.0000
  sHO   CT   1       0.1700   0.0000
  sHO   C1   1       0.1700   0.0000
  sHO   C3   1       0.1700   0.0000
  sHO   C4   1       0.1700   0.0000
  sHO   C7   1       0.1700   0.0000
  sHO   C8   1       0.1700   0.0000
  sHO   C9   1       0.1700   0.0000
  sHO   CV   1       0.1700   0.0000
  sHO   CW   1       0.1700   0.0000
  sHO   C*   1       0.1700   0.0000
  sHO   C0   1       0.1526   0.0000
  sHO    F   1       0.1559   0.0000
  sHO    H   1       0.0535   0.0000
  sHO   HB   1       0.0535   0.0000
  sHO   HC   1       0.1325   0.0000
  sHO   H1   1       0.1236   0.0000
  sHO   H2   1       0.1147   0.0000
  sHO   H3   1       0.1057   0.0000
  sHO   HA   1       0.1300   0.0000
  sHO   H4   1       0.1255   0.0000
  sHO   H5   1       0.1211   0.0000
  sHO   HO   1       0.0000   0.0000
  sHO   HS   1       0.0535   0.0000
  sHO   HW   1       0.0000   0.0000
  sHO   HP   1       0.0980   0.0000
  sHO    I   1       0.2094   0.0000
  sHO   Cl   1       0.2201   0.0000
  sHO   Na   1       0.1664   0.0000
  sHO   IB   1       0.4454   0.0000
  sHO   MG   1       0.0706   0.0000
  sHO    N   1       0.1625   0.0000
  sHO   NA   1       0.1625   0.0000
  sHO   NB   1       0.1625   0.0000
  sHO   NC   1       0.1625   0.0000
  sHO   N2   1       0.1625   0.0000
  sHO   N3   1       0.1625   0.0000
  sHO   N*   1       0.1625   0.0000
  sHO    O   1       0.1480   0.0000
  sHO   OB   1       0.1480   0.0000
  sHO   OW   1       0.1575   0.0000
  sHO   OH   1       0.1533   0.0000
  sHO   O3   1       0.1533   0.0000
  sHO   OS   1       0.1500   0.0000
  sHO   O2   1       0.1480   0.0000
  sHO    P   1       0.1871   0.0000
  sHO    S   1       0.1782   0.0000
  sHO   SH   1       0.1782   0.0000
  sHO   CU   1       0.1700   0.0000
  sHO   FE   1       0.0000   0.0000
  sHO    K   1       0.2368   0.0000
  sHO   Rb   1       0.2633   0.0000
  sHO   Li   1       0.1013   0.0000
  sHO   Zn   1       0.0980   0.0000
  sHO HW_tip4pew   1       0.0000   0.0000
  sHO OW_tip4pew   1       0.1582   0.0000
  sHO HW_tip4p   1       0.0000   0.0000
  sHO OW_tip4p   1       0.1577   0.0000
  sHO HW_tip5p   1       0.0000   0.0000
  sHO OW_tip5p   1       0.1560   0.0000
  sHO HW_tip4pd   1       0.0000   0.0000
  sHO OW_tip4pd   1       0.1583   0.0000
  sHO   MW   1       0.0000   0.0000
  sHO MCH3   1       0.0000   0.0000
  sHO MNH3   1       0.0000   0.0000
  sHO   c3   1       0.1700   0.0000
  sHO   hc   1       0.1325   0.0000
  sHO    c   1       0.1700   0.0000
  sHO    o   1       0.1480   0.0000
  sHO    n   1       0.1625   0.0000
  sHO   h1   1       0.1236   0.0000
  sHO   ca   1       0.1700   0.0000
  sHO   ha   1       0.1300   0.0000
  sHO   n3   1       0.1625   0.0000
  sHO   hx   1       0.0980   0.0000
  sHO   n4   1       0.1625   0.0000
  sHO   hn   1       0.0535   0.0000
  sHS   Br   1       0.0535   0.0000
  sHS    C   1       0.2234   0.1071
  sHS   C6   1       0.2234   0.1071
  sHS   C5   1       0.2234   0.1071
  sHS   CA   1       0.2234   0.1071
  sHS   CB   1       0.2234   0.1071
  sHS   CC   1       0.2234   0.1071
  sHS   CK   1       0.2234   0.1071
  sHS   CM   1       0.2234   0.1071
  sHS   CN   1       0.2234   0.1071
  sHS   CQ   1       0.2234   0.1071
  sHS   CR   1       0.2234   0.1071
  sHS   CT   1       0.2234   0.1208
  sHS   C1   1       0.2234   0.1208
  sHS   C3   1       0.2234   0.1208
  sHS   C4   1       0.2234   0.1208
  sHS   C7   1       0.2234   0.1208
  sHS   C8   1       0.2234   0.1208
  sHS   C9   1       0.2234   0.1208
  sHS   CV   1       0.2234   0.1071
  sHS   CW   1       0.2234   0.1071
  sHS   C*   1       0.2234   0.1071
  sHS   C0   1       0.2061   0.2477
  sHS    F   1       0.2094   0.0902
  sHS    H   1       0.1069   0.0458
  sHS   HB   1       0.1069   0.0458
  sHS   HC   1       0.1859   0.0458
  sHS   H1   1       0.1770   0.0458
  sHS   H2   1       0.1681   0.0458
  sHS   H3   1       0.1592   0.0458
  sHS   HA   1       0.1834   0.0447
  sHS   H4   1       0.1790   0.0447
  sHS   H5   1       0.1745   0.0447
  sHS   HO   1       0.0535   0.0000
  sHS   HS   1       0.1069   0.0458
  sHS   HW   1       0.0535   0.0000
  sHS   HP   1       0.1515   0.0458
  sHS    I   1       0.2628   0.2310
  sHS   Cl   1       0.2735   0.1155
  sHS   Na   1       0.2199   0.0192
  sHS   IB   1       0.4989   0.1155
  sHS   MG   1       0.1241   0.3455
  sHS    N   1       0.2160   0.1506
  sHS   NA   1       0.2160   0.1506
  sHS   NB   1       0.2160   0.1506
  sHS   NC   1       0.2160   0.1506
  sHS   N2   1       0.2160   0.1506
  sHS   N3   1       0.2160   0.1506
  sHS   N*   1       0.2160   0.1506
  sHS    O   1       0.2014   0.1674
  sHS   OB   1       0.2014   0.1674
  sHS   OW   1       0.2110   0.1424
  sHS   OH   1       0.2068   0.1675
  sHS   O3   1       0.2068   0.1675
  sHS   OS   1       0.2035   0.1506
  sHS   O2   1       0.2014   0.1674
  sHS    P   1       0.2405   0.1633
  sHS    S   1       0.2316   0.1826
  sHS   SH   1       0.2316   0.1826
  sHS   CU   1       0.2234   0.1071
  sHS   FE   1       0.0535   0.0000
  sHS    K   1       0.2903   0.0066
  sHS   Rb   1       0.3168   0.0048
  sHS   Li   1       0.1547   0.0494
  sHS   Zn   1       0.1515   0.0408
  sHS HW_tip4pew   1       0.0535   0.0000
  sHS OW_tip4pew   1       0.2117   0.1473
  sHS HW_tip4p   1       0.0535   0.0000
  sHS OW_tip4p   1       0.2111   0.1438
  sHS HW_tip5p   1       0.0535   0.0000
  sHS OW_tip5p   1       0.2095   0.1461
  sHS HW_tip4pd   1       0.0535   0.0000
  sHS OW_tip4pd   1       0.2117   0.1785
  sHS   MW   1       0.0535   0.0000
  sHS MCH3   1       0.0535   0.0000
  sHS MNH3   1       0.0535   0.0000
  sHS   c3   1       0.2234   0.1208
  sHS   hc   1       0.1859   0.0458
  sHS    c   1       0.2234   0.1071
  sHS    o   1       0.2014   0.1674
  sHS    n   1       0.2160   0.1506
  sHS   h1   1       0.1770   0.0458
  sHS   ca   1       0.2234   0.1071
  sHS   ha   1       0.1834   0.0447
  sHS   n3   1       0.2160   0.1506
  sHS   hx   1       0.1515   0.0458
  sHS   n4   1       0.2160   0.1506
  sHS   hn   1       0.1069   0.0458
  sHW   Br   1       0.0000   0.0000
  sHW    C   1       0.1700   0.0000
  sHW   C6   1       0.1700   0.0000
  sHW   C5   1       0.1700   0.0000
  sHW   CA   1       0.1700   0.0000
  sHW   CB   1       0.1700   0.0000
  sHW   CC   1       0.1700   0.0000
  sHW   CK   1       0.1700   0.0000
  sHW   CM   1       0.1700   0.0000
  sHW   CN   1       0.1700   0.0000
  sHW   CQ   1       0.1700   0.0000
  sHW   CR   1       0.1700   0.0000
  sHW   CT   1       0.1700   0.0000
  sHW   C1   1       0.1700   0.0000
  sHW   C3   1       0.1700   0.0000
  sHW   C4   1       0.1700   0.0000
  sHW   C7   1       0.1700   0.0000
  sHW   C8   1       0.1700   0.0000
  sHW   C9   1       0.1700   0.0000
  sHW   CV   1       0.1700   0.0000
  sHW   CW   1       0.1700   0.0000
  sHW   C*   1       0.1700   0.0000
  sHW   C0   1       0.1526   0.0000
  sHW    F   1       0.1559   0.0000
  sHW    H   1       0.0535   0.0000
  sHW   HB   1       0.0535   0.0000
  sHW   HC   1       0.1325   0.0000
  sHW   H1   1       0.1236   0.0000
  sHW   H2   1       0.1147   0.0000
  sHW   H3   1       0.1057   0.0000
  sHW   HA   1       0.1300   0.0000
  sHW   H4   1       0.1255   0.0000
  sHW   H5   1       0.1211   0.0000
  sHW   HO   1       0.0000   0.0000
  sHW   HS   1       0.0535   0.0000
  sHW   HW   1       0.0000   0.0000
  sHW   HP   1       0.0980   0.0000
  sHW    I   1       0.2094   0.0000
  sHW   Cl   1       0.2201   0.0000
  sHW   Na   1       0.1664   0.0000
  sHW   IB   1       0.4454   0.0000
  sHW   MG   1       0.0706   0.0000
  sHW    N   1       0.1625   0.0000
  sHW   NA   1       0.1625   0.0000
  sHW   NB   1       0.1625   0.0000
  sHW   NC   1       0.1625   0.0000
  sHW   N2   1       0.1625   0.0000
  sHW   N3   1       0.1625   0.0000
  sHW   N*   1       0.1625   0.0000
  sHW    O   1       0.1480   0.0000
  sHW   OB   1       0.1480   0.0000
  sHW   OW   1       0.1575   0.0000
  sHW   OH   1       0.1533   0.0000
  sHW   O3   1       0.1533   0.0000
  sHW   OS   1       0.1500   0.0000
  sHW   O2   1       0.1480   0.0000
  sHW    P   1       0.1871   0.0000
  sHW    S   1       0.1782   0.0000
  sHW   SH   1       0.1782   0.0000
  sHW   CU   1       0.1700   0.0000
  sHW   FE   1       0.0000   0.0000
  sHW    K   1       0.2368   0.0000
  sHW   Rb   1       0.2633   0.0000
  sHW   Li   1       0.1013   0.0000
  sHW   Zn   1       0.0980   0.0000
  sHW HW_tip4pew   1       0.0000   0.0000
  sHW OW_tip4pew   1       0.1582   0.0000
  sHW HW_tip4p   1       0.0000   0.0000
  sHW OW_tip4p   1       0.1577   0.0000
  sHW HW_tip5p   1       0.0000   0.0000
  sHW OW_tip5p   1       0.1560   0.0000
  sHW HW_tip4pd   1       0.0000   0.0000
  sHW OW_tip4pd   1       0.1583   0.0000
  sHW   MW   1       0.0000   0.0000
  sHW MCH3   1       0.0000   0.0000
  sHW MNH3   1       0.0000   0.0000
  sHW   c3   1       0.1700   0.0000
  sHW   hc   1       0.1325   0.0000
  sHW    c   1       0.1700   0.0000
  sHW    o   1       0.1480   0.0000
  sHW    n   1       0.1625   0.0000
  sHW   h1   1       0.1236   0.0000
  sHW   ca   1       0.1700   0.0000
  sHW   ha   1       0.1300   0.0000
  sHW   n3   1       0.1625   0.0000
  sHW   hx   1       0.0980   0.0000
  sHW   n4   1       0.1625   0.0000
  sHW   hn   1       0.0535   0.0000
  sHP   Br   1       0.0980   0.0000
  sHP    C   1       0.2680   0.1071
  sHP   C6   1       0.2680   0.1071
  sHP   C5   1       0.2680   0.1071
  sHP   CA   1       0.2680   0.1071
  sHP   CB   1       0.2680   0.1071
  sHP   CC   1       0.2680   0.1071
  sHP   CK   1       0.2680   0.1071
  sHP   CM   1       0.2680   0.1071
  sHP   CN   1       0.2680   0.1071
  sHP   CQ   1       0.2680   0.1071
  sHP   CR   1       0.2680   0.1071
  sHP   CT   1       0.2680   0.1208
  sHP   C1   1       0.2680   0.1208
  sHP   C3   1       0.2680   0.1208
  sHP   C4   1       0.2680   0.1208
  sHP   C7   1       0.2680   0.1208
  sHP   C8   1       0.2680   0.1208
  sHP   C9   1       0.2680   0.1208
  sHP   CV   1       0.2680   0.1071
  sHP   CW   1       0.2680   0.1071
  sHP   C*   1       0.2680   0.1071
  sHP   C0   1       0.2506   0.2477
  sHP    F   1       0.2539   0.0902
  sHP    H   1       0.1515   0.0458
  sHP   HB   1       0.1515   0.0458
  sHP   HC   1       0.2305   0.0458
  sHP   H1   1       0.2216   0.0458
  sHP   H2   1       0.2127   0.0458
  sHP   H3   1       0.2037   0.0458
  sHP   HA   1       0.2280   0.0447
  sHP   H4   1       0.2235   0.0447
  sHP   H5   1       0.2191   0.0447
  sHP   HO   1       0.0980   0.0000
  sHP   HS   1       0.1515   0.0458
  sHP   HW   1       0.0980   0.0000
  sHP   HP   1       0.1960   0.0458
  sHP    I   1       0.3074   0.2310
  sHP   Cl   1       0.3181   0.1155
  sHP   Na   1       0.2644   0.0192
  sHP   IB   1       0.5434   0.1155
  sHP   MG   1       0.1686   0.3455
  sHP    N   1       0.2605   0.1506
  sHP   NA   1       0.2605   0.1506
  sHP   NB   1       0.2605   0.1506
  sHP   NC   1       0.2605   0.1506
  sHP   N2   1       0.2605   0.1506
  sHP   N3   1       0.2605   0.1506
  sHP   N*   1       0.2605   0.1506
  sHP    O   1       0.2460   0.1674
  sHP   OB   1       0.2460   0.1674
  sHP   OW   1       0.2555   0.1424
  sHP   OH   1       0.2513   0.1675
  sHP   O3   1       0.2513   0.1675
  sHP   OS   1       0.2480   0.1506
  sHP   O2   1       0.2460   0.1674
  sHP    P   1       0.2851   0.1633
  sHP    S   1       0.2762   0.1826
  sHP   SH   1       0.2762   0.1826
  sHP   CU   1       0.2680   0.1071
  sHP   FE   1       0.0980   0.0000
  sHP    K   1       0.3348   0.0066
  sHP   Rb   1       0.3613   0.0048
  sHP   Li   1       0.1993   0.0494
  sHP   Zn   1       0.1960   0.0408
  sHP HW_tip4pew   1       0.0980   0.0000
  sHP OW_tip4pew   1       0.2562   0.1473
  sHP HW_tip4p   1       0.0980   0.0000
  sHP OW_tip4p   1       0.2557   0.1438
  sHP HW_tip5p   1       0.0980   0.0000
  sHP OW_tip5p   1       0.2540   0.1461
  sHP HW_tip4pd   1       0.0980   0.0000
  sHP OW_tip4pd   1       0.2562   0.1785
  sHP   MW   1       0.0980   0.0000
  sHP MCH3   1       0.0980   0.0000
  sHP MNH3   1       0.0980   0.0000
  sHP   c3   1       0.2680   0.1208
  sHP   hc   1       0.2305   0.0458
  sHP    c   1       0.2680   0.1071
  sHP    o   1       0.2460   0.1674
  sHP    n   1       0.2605   0.1506
  sHP   h1   1       0.2216   0.0458
  sHP   ca   1       0.2680   0.1071
  sHP   ha   1       0.2280   0.0447
  sHP   n3   1       0.2605   0.1506
  sHP   hx   1       0.1960   0.0458
  sHP   n4   1       0.2605   0.1506
  sHP   hn   1       0.1515   0.0458
   sI   Br   1       0.2094   0.0000
   sI    C   1       0.3793   0.5406
   sI   C6   1       0.3793   0.5406
   sI   C5   1       0.3793   0.5406
   sI   CA   1       0.3793   0.5406
   sI   CB   1       0.3793   0.5406
   sI   CC   1       0.3793   0.5406
   sI   CK   1       0.3793   0.5406
   sI   CM   1       0.3793   0.5406
   sI   CN   1       0.3793   0.5406
   sI   CQ   1       0.3793   0.5406
   sI   CR   1       0.3793   0.5406
   sI   CT   1       0.3793   0.6098
   sI   C1   1       0.3793   0.6098
   sI   C3   1       0.3793   0.6098
   sI   C4   1       0.3793   0.6098
   sI   C7   1       0.3793   0.6098
   sI   C8   1       0.3793   0.6098
   sI   C9   1       0.3793   0.6098
   sI   CV   1       0.3793   0.5406
   sI   CW   1       0.3793   0.5406
   sI   C*   1       0.3793   0.5406
   sI   C0   1       0.3620   1.2500
   sI    F   1       0.3653   0.4553
   sI    H   1       0.2628   0.2310
   sI   HB   1       0.2628   0.2310
   sI   HC   1       0.3418   0.2310
   sI   H1   1       0.3329   0.2310
   sI   H2   1       0.3240   0.2310
   sI   H3   1       0.3151   0.2310
   sI   HA   1       0.3393   0.2258
   sI   H4   1       0.3349   0.2258
   sI   H5   1       0.3304   0.2258
   sI   HO   1       0.2094   0.0000
   sI   HS   1       0.2628   0.2310
   sI   HW   1       0.2094   0.0000
   sI   HP   1       0.3074   0.2310
   sI    I   1       0.4187   1.1659
   sI   Cl   1       0.4294   0.5830
   sI   Na   1       0.3758   0.0970
   sI   IB   1       0.6548   0.5830
   sI   MG   1       0.2800   1.7438
   sI    N   1       0.3719   0.7601
   sI   NA   1       0.3719   0.7601
   sI   NB   1       0.3719   0.7601
   sI   NC   1       0.3719   0.7601
   sI   N2   1       0.3719   0.7601
   sI   N3   1       0.3719   0.7601
   sI   N*   1       0.3719   0.7601
   sI    O   1       0.3574   0.8448
   sI   OB   1       0.3574   0.8448
   sI   OW   1       0.3669   0.7190
   sI   OH   1       0.3627   0.8456
   sI   O3   1       0.3627   0.8456
   sI   OS   1       0.3594   0.7601
   sI   O2   1       0.3574   0.8448
   sI    P   1       0.3964   0.8244
   sI    S   1       0.3875   0.9218
   sI   SH   1       0.3875   0.9218
   sI   CU   1       0.3793   0.5406
   sI   FE   1       0.2094   0.0000
   sI    K   1       0.4462   0.0334
   sI   Rb   1       0.4727   0.0240
   sI   Li   1       0.3107   0.2494
   sI   Zn   1       0.3074   0.2061
   sI HW_tip4pew   1       0.2094   0.0000
   sI OW_tip4pew   1       0.3676   0.7437
   sI HW_tip4p   1       0.2094   0.0000
   sI OW_tip4p   1       0.3670   0.7258
   sI HW_tip5p   1       0.2094   0.0000
   sI OW_tip5p   1       0.3654   0.7374
   sI HW_tip4pd   1       0.2094   0.0000
   sI OW_tip4pd   1       0.3676   0.9008
   sI   MW   1       0.2094   0.0000
   sI MCH3   1       0.2094   0.0000
   sI MNH3   1       0.2094   0.0000
   sI   c3   1       0.3793   0.6098
   sI   hc   1       0.3418   0.2310
   sI    c   1       0.3793   0.5406
   sI    o   1       0.3574   0.8448
   sI    n   1       0.3719   0.7601
   sI   h1   1       0.3329   0.2310
   sI   ca   1       0.3793   0.5406
   sI   ha   1       0.3393   0.2258
   sI   n3   1       0.3719   0.7601
   sI   hx   1       0.3074   0.2310
   sI   n4   1       0.3719   0.7601
   sI   hn   1       0.2628   0.2310
  sCl   Br   1       0.2201   0.0000
  sCl    C   1       0.3900   0.2703
  sCl   C6   1       0.3900   0.2703
  sCl   C5   1       0.3900   0.2703
  sCl   CA   1       0.3900   0.2703
  sCl   CB   1       0.3900   0.2703
  sCl   CC   1       0.3900   0.2703
  sCl   CK   1       0.3900   0.2703
  sCl   CM   1       0.3900   0.2703
  sCl   CN   1       0.3900   0.2703
  sCl   CQ   1       0.3900   0.2703
  sCl   CR   1       0.3900   0.2703
  sCl   CT   1       0.3900   0.3049
  sCl   C1   1       0.3900   0.3049
  sCl   C3   1       0.3900   0.3049
  sCl   C4   1       0.3900   0.3049
  sCl   C7   1       0.3900   0.3049
  sCl   C8   1       0.3900   0.3049
  sCl   C9   1       0.3900   0.3049
  sCl   CV   1       0.3900   0.2703
  sCl   CW   1       0.3900   0.2703
  sCl   C*   1       0.3900   0.2703
  sCl   C0   1       0.3727   0.6250
  sCl    F   1       0.3760   0.2277
  sCl    H   1       0.2735   0.1155
  sCl   HB   1       0.2735   0.1155
  sCl   HC   1       0.3525   0.1155
  sCl   H1   1       0.3436   0.1155
  sCl   H2   1       0.3347   0.1155
  sCl   H3   1       0.3258   0.1155
  sCl   HA   1       0.3500   0.1129
  sCl   H4   1       0.3456   0.1129
  sCl   H5   1       0.3411   0.1129
  sCl   HO   1       0.2201   0.0000
  sCl   HS   1       0.2735   0.1155
  sCl   HW   1       0.2201   0.0000
  sCl   HP   1       0.3181   0.1155
  sCl    I   1       0.4294   0.5830
  sCl   Cl   1       0.4401   0.2915
  sCl   Na   1       0.3865   0.0485
  sCl   IB   1       0.6655   0.2915
  sCl   MG   1       0.2907   0.8719
  sCl    N   1       0.3826   0.3801
  sCl   NA   1       0.3826   0.3801
  sCl   NB   1       0.3826   0.3801
  sCl   NC   1       0.3826   0.3801
  sCl   N2   1       0.3826   0.3801
  sCl   N3   1       0.3826   0.3801
  sCl   N*   1       0.3826   0.3801
  sCl    O   1       0.3680   0.4224
  sCl   OB   1       0.3680   0.4224
  sCl   OW   1       0.3776   0.3595
  sCl   OH   1       0.3734   0.4228
  sCl   O3   1       0.3734   0.4228
  sCl   OS   1       0.3701   0.3801
  sCl   O2   1       0.3680   0.4224
  sCl    P   1       0.4071   0.4122
  sCl    S   1       0.3982   0.4609
  sCl   SH   1       0.3982   0.4609
  sCl   CU   1       0.3900   0.2703
  sCl   FE   1       0.2201   0.0000
  sCl    K   1       0.4569   0.0167
  sCl   Rb   1       0.4834   0.0120
  sCl   Li   1       0.3213   0.1247
  sCl   Zn   1       0.3181   0.1031
  sCl HW_tip4pew   1       0.2201   0.0000
  sCl OW_tip4pew   1       0.3783   0.3719
  sCl HW_tip4p   1       0.2201   0.0000
  sCl OW_tip4p   1       0.3777   0.3629
  sCl HW_tip5p   1       0.2201   0.0000
  sCl OW_tip5p   1       0.3761   0.3687
  sCl HW_tip4pd   1       0.2201   0.0000
  sCl OW_tip4pd   1       0.3783   0.4504
  sCl   MW   1       0.2201   0.0000
  sCl MCH3   1       0.2201   0.0000
  sCl MNH3   1       0.2201   0.0000
  sCl   c3   1       0.3900   0.3049
  sCl   hc   1       0.3525   0.1155
  sCl    c   1       0.3900   0.2703
  sCl    o   1       0.3680   0.4224
  sCl    n   1       0.3826   0.3801
  sCl   h1   1       0.3436   0.1155
  sCl   ca   1       0.3900   0.2703
  sCl   ha   1       0.3500   0.1129
  sCl   n3   1       0.3826   0.3801
  sCl   hx   1       0.3181   0.1155
  sCl   n4   1       0.3826   0.3801
  sCl   hn   1       0.2735   0.1155
  sNa   Br   1       0.1664   0.0000
  sNa    C   1       0.3364   0.0450
  sNa   C6   1       0.3364   0.0450
  sNa   C5   1       0.3364   0.0450
  sNa   CA   1       0.3364   0.0450
  sNa   CB   1       0.3364   0.0450
  sNa   CC   1       0.3364   0.0450
  sNa   CK   1       0.3364   0.0450
  sNa   CM   1       0.3364   0.0450
  sNa   CN   1       0.3364   0.0450
  sNa   CQ   1       0.3364   0.0450
  sNa   CR   1       0.3364   0.0450
  sNa   CT   1       0.3364   0.0507
  sNa   C1   1       0.3364   0.0507
  sNa   C3   1       0.3364   0.0507
  sNa   C4   1       0.3364   0.0507
  sNa   C7   1       0.3364   0.0507
  sNa   C8   1       0.3364   0.0507
  sNa   C9   1       0.3364   0.0507
  sNa   CV   1       0.3364   0.0450
  sNa   CW   1       0.3364   0.0450
  sNa   C*   1       0.3364   0.0450
  sNa   C0   1       0.3190   0.1040
  sNa    F   1       0.3223   0.0379
  sNa    H   1       0.2199   0.0192
  sNa   HB   1       0.2199   0.0192
  sNa   HC   1       0.2989   0.0192
  sNa   H1   1       0.2900   0.0192
  sNa   H2   1       0.2811   0.0192
  sNa   H3   1       0.2722   0.0192
  sNa   HA   1       0.2964   0.0188
  sNa   H4   1       0.2919   0.0188
  sNa   H5   1       0.2875   0.0188
  sNa   HO   1       0.1664   0.0000
  sNa   HS   1       0.2199   0.0192
  sNa   HW   1       0.1664   0.0000
  sNa   HP   1       0.2644   0.0192
  sNa    I   1       0.3758   0.0970
  sNa   Cl   1       0.3865   0.0485
  sNa   Na   1       0.3328   0.0081
  sNa   IB   1       0.6119   0.0485
  sNa   MG   1       0.2370   0.1451
  sNa    N   1       0.3289   0.0633
  sNa   NA   1       0.3289   0.0633
  sNa   NB   1       0.3289   0.0633
  sNa   NC   1       0.3289   0.0633
  sNa   N2   1       0.3289   0.0633
  sNa   N3   1       0.3289   0.0633
  sNa   N*   1       0.3289   0.0633
  sNa    O   1       0.3144   0.0703
  sNa   OB   1       0.3144   0.0703
  sNa   OW   1       0.3240   0.0598
  sNa   OH   1       0.3197   0.0704
  sNa   O3   1       0.3197   0.0704
  sNa   OS   1       0.3164   0.0633
  sNa   O2   1       0.3144   0.0703
  sNa    P   1       0.3535   0.0686
  sNa    S   1       0.3446   0.0767
  sNa   SH   1       0.3446   0.0767
  sNa   CU   1       0.3364   0.0450
  sNa   FE   1       0.1664   0.0000
  sNa    K   1       0.4032   0.0028
  sNa   Rb   1       0.4298   0.0020
  sNa   Li   1       0.2677   0.0208
  sNa   Zn   1       0.2644   0.0172
  sNa HW_tip4pew   1       0.1664   0.0000
  sNa OW_tip4pew   1       0.3246   0.0619
  sNa HW_tip4p   1       0.1664   0.0000
  sNa OW_tip4p   1       0.3241   0.0604
  sNa HW_tip5p   1       0.1664   0.0000
  sNa OW_tip5p   1       0.3224   0.0614
  sNa HW_tip4pd   1       0.1664   0.0000
  sNa OW_tip4pd   1       0.3247   0.0750
  sNa   MW   1       0.1664   0.0000
  sNa MCH3   1       0.1664   0.0000
  sNa MNH3   1       0.1664   0.0000
  sNa   c3   1       0.3364   0.0507
  sNa   hc   1       0.2989   0.0192
  sNa    c   1       0.3364   0.0450
  sNa    o   1       0.3144   0.0703
  sNa    n   1       0.3289   0.0633
  sNa   h1   1       0.2900   0.0192
  sNa   ca   1       0.3364   0.0450
  sNa   ha   1       0.2964   0.0188
  sNa   n3   1       0.3289   0.0633
  sNa   hx   1       0.2644   0.0192
  sNa   n4   1       0.3289   0.0633
  sNa   hn   1       0.2199   0.0192
  sIB   Br   1       0.4454   0.0000
  sIB    C   1       0.6154   0.2703
  sIB   C6   1       0.6154   0.2703
  sIB   C5   1       0.6154   0.2703
  sIB   CA   1       0.6154   0.2703
  sIB   CB   1       0.6154   0.2703
  sIB   CC   1       0.6154   0.2703
  sIB   CK   1       0.6154   0.2703
  sIB   CM   1       0.6154   0.2703
  sIB   CN   1       0.6154   0.2703
  sIB   CQ   1       0.6154   0.2703
  sIB   CR   1       0.6154   0.2703
  sIB   CT   1       0.6154   0.3049
  sIB   C1   1       0.6154   0.3049
  sIB   C3   1       0.6154   0.3049
  sIB   C4   1       0.6154   0.3049
  sIB   C7   1       0.6154   0.3049
  sIB   C8   1       0.6154   0.3049
  sIB   C9   1       0.6154   0.3049
  sIB   CV   1       0.6154   0.2703
  sIB   CW   1       0.6154   0.2703
  sIB   C*   1       0.6154   0.2703
  sIB   C0   1       0.5981   0.6250
  sIB    F   1       0.6014   0.2277
  sIB    H   1       0.4989   0.1155
  sIB   HB   1       0.4989   0.1155
  sIB   HC   1       0.5779   0.1155
  sIB   H1   1       0.5690   0.1155
  sIB   H2   1       0.5601   0.1155
  sIB   H3   1       0.5512   0.1155
  sIB   HA   1       0.5754   0.1129
  sIB   H4   1       0.5710   0.1129
  sIB   H5   1       0.5665   0.1129
  sIB   HO   1       0.4454   0.0000
  sIB   HS   1       0.4989   0.1155
  sIB   HW   1       0.4454   0.0000
  sIB   HP   1       0.5434   0.1155
  sIB    I   1       0.6548   0.5830
  sIB   Cl   1       0.6655   0.2915
  sIB   Na   1       0.6119   0.0485
  sIB   IB   1       0.8909   0.2915
  sIB   MG   1       0.5161   0.8719
  sIB    N   1       0.6079   0.3801
  sIB   NA   1       0.6079   0.3801
  sIB   NB   1       0.6079   0.3801
  sIB   NC   1       0.6079   0.3801
  sIB   N2   1       0.6079   0.3801
  sIB   N3   1       0.6079   0.3801
  sIB   N*   1       0.6079   0.3801
  sIB    O   1       0.5934   0.4224
  sIB   OB   1       0.5934   0.4224
  sIB   OW   1       0.6030   0.3595
  sIB   OH   1       0.5988   0.4228
  sIB   O3   1       0.5988   0.4228
  sIB   OS   1       0.5954   0.3801
  sIB   O2   1       0.5934   0.4224
  sIB    P   1       0.6325   0.4122
  sIB    S   1       0.6236   0.4609
  sIB   SH   1       0.6236   0.4609
  sIB   CU   1       0.6154   0.2703
  sIB   FE   1       0.4454   0.0000
  sIB    K   1       0.6823   0.0167
  sIB   Rb   1       0.7088   0.0120
  sIB   Li   1       0.5467   0.1247
  sIB   Zn   1       0.5434   0.1031
  sIB HW_tip4pew   1       0.4454   0.0000
  sIB OW_tip4pew   1       0.6037   0.3719
  sIB HW_tip4p   1       0.4454   0.0000
  sIB OW_tip4p   1       0.6031   0.3629
  sIB HW_tip5p   1       0.4454   0.0000
  sIB OW_tip5p   1       0.6014   0.3687
  sIB HW_tip4pd   1       0.4454   0.0000
  sIB OW_tip4pd   1       0.6037   0.4504
  sIB   MW   1       0.4454   0.0000
  sIB MCH3   1       0.4454   0.0000
  sIB MNH3   1       0.4454   0.0000
  sIB   c3   1       0.6154   0.3049
  sIB   hc   1       0.5779   0.1155
  sIB    c   1       0.6154   0.2703
  sIB    o   1       0.5934   0.4224
  sIB    n   1       0.6079   0.3801
  sIB   h1   1       0.5690   0.1155
  sIB   ca   1       0.6154   0.2703
  sIB   ha   1       0.5754   0.1129
  sIB   n3   1       0.6079   0.3801
  sIB   hx   1       0.5434   0.1155
  sIB   n4   1       0.6079   0.3801
  sIB   hn   1       0.4989   0.1155
  sMG   Br   1       0.0706   0.0000
  sMG    C   1       0.2406   0.8085
  sMG   C6   1       0.2406   0.8085
  sMG   C5   1       0.2406   0.8085
  sMG   CA   1       0.2406   0.8085
  sMG   CB   1       0.2406   0.8085
  sMG   CC   1       0.2406   0.8085
  sMG   CK   1       0.2406   0.8085
  sMG   CM   1       0.2406   0.8085
  sMG   CN   1       0.2406   0.8085
  sMG   CQ   1       0.2406   0.8085
  sMG   CR   1       0.2406   0.8085
  sMG   CT   1       0.2406   0.9119
  sMG   C1   1       0.2406   0.9119
  sMG   C3   1       0.2406   0.9119
  sMG   C4   1       0.2406   0.9119
  sMG   C7   1       0.2406   0.9119
  sMG   C8   1       0.2406   0.9119
  sMG   C9   1       0.2406   0.9119
  sMG   CV   1       0.2406   0.8085
  sMG   CW   1       0.2406   0.8085
  sMG   C*   1       0.2406   0.8085
  sMG   C0   1       0.2232   1.8695
  sMG    F   1       0.2265   0.6810
  sMG    H   1       0.1241   0.3455
  sMG   HB   1       0.1241   0.3455
  sMG   HC   1       0.2031   0.3455
  sMG   H1   1       0.1942   0.3455
  sMG   H2   1       0.1853   0.3455
  sMG   H3   1       0.1764   0.3455
  sMG   HA   1       0.2006   0.3377
  sMG   H4   1       0.1961   0.3377
  sMG   H5   1       0.1917   0.3377
  sMG   HO   1       0.0706   0.0000
  sMG   HS   1       0.1241   0.3455
  sMG   HW   1       0.0706   0.0000
  sMG   HP   1       0.1686   0.3455
  sMG    I   1       0.2800   1.7438
  sMG   Cl   1       0.2907   0.8719
  sMG   Na   1       0.2370   0.1451
  sMG   IB   1       0.5161   0.8719
  sMG   MG   1       0.1412   2.6079
  sMG    N   1       0.2331   1.1368
  sMG   NA   1       0.2331   1.1368
  sMG   NB   1       0.2331   1.1368
  sMG   NC   1       0.2331   1.1368
  sMG   N2   1       0.2331   1.1368
  sMG   N3   1       0.2331   1.1368
  sMG   N*   1       0.2331   1.1368
  sMG    O   1       0.2186   1.2635
  sMG   OB   1       0.2186   1.2635
  sMG   OW   1       0.2281   1.0753
  sMG   OH   1       0.2239   1.2647
  sMG   O3   1       0.2239   1.2647
  sMG   OS   1       0.2206   1.1368
  sMG   O2   1       0.2186   1.2635
  sMG    P   1       0.2577   1.2330
  sMG    S   1       0.2488   1.3786
  sMG   SH   1       0.2488   1.3786
  sMG   CU   1       0.2406   0.8085
  sMG   FE   1       0.0706   0.0000
  sMG    K   1       0.3074   0.0499
  sMG   Rb   1       0.3340   0.0359
  sMG   Li   1       0.1719   0.3730
  sMG   Zn   1       0.1686   0.3083
  sMG HW_tip4pew   1       0.0706   0.0000
  sMG OW_tip4pew   1       0.2288   1.1123
  sMG HW_tip4p   1       0.0706   0.0000
  sMG OW_tip4p   1       0.2283   1.0855
  sMG HW_tip5p   1       0.0706   0.0000
  sMG OW_tip5p   1       0.2266   1.1028
  sMG HW_tip4pd   1       0.0706   0.0000
  sMG OW_tip4pd   1       0.2289   1.3472
  sMG   MW   1       0.0706   0.0000
  sMG MCH3   1       0.0706   0.0000
  sMG MNH3   1       0.0706   0.0000
  sMG   c3   1       0.2406   0.9119
  sMG   hc   1       0.2031   0.3455
  sMG    c   1       0.2406   0.8085
  sMG    o   1       0.2186   1.2635
  sMG    n   1       0.2331   1.1368
  sMG   h1   1       0.1942   0.3455
  sMG   ca   1       0.2406   0.8085
  sMG   ha   1       0.2006   0.3377
  sMG   n3   1       0.2331   1.1368
  sMG   hx   1       0.1686   0.3455
  sMG   n4   1       0.2331   1.1368
  sMG   hn   1       0.1241   0.3455
   sN   Br   1       0.1625   0.0000
   sN    C   1       0.3325   0.3524
   sN   C6   1       0.3325   0.3524
   sN   C5   1       0.3325   0.3524
   sN   CA   1       0.3325   0.3524
   sN   CB   1       0.3325   0.3524
   sN   CC   1       0.3325   0.3524
   sN   CK   1       0.3325   0.3524
   sN   CM   1       0.3325   0.3524
   sN   CN   1       0.3325   0.3524
   sN   CQ   1       0.3325   0.3524
   sN   CR   1       0.3325   0.3524
   sN   CT   1       0.3325   0.3975
   sN   C1   1       0.3325   0.3975
   sN   C3   1       0.3325   0.3975
   sN   C4   1       0.3325   0.3975
   sN   C7   1       0.3325   0.3975
   sN   C8   1       0.3325   0.3975
   sN   C9   1       0.3325   0.3975
   sN   CV   1       0.3325   0.3524
   sN   CW   1       0.3325   0.3524
   sN   C*   1       0.3325   0.3524
   sN   C0   1       0.3151   0.8149
   sN    F   1       0.3184   0.2968
   sN    H   1       0.2160   0.1506
   sN   HB   1       0.2160   0.1506
   sN   HC   1       0.2950   0.1506
   sN   H1   1       0.2861   0.1506
   sN   H2   1       0.2772   0.1506
   sN   H3   1       0.2682   0.1506
   sN   HA   1       0.2925   0.1472
   sN   H4   1       0.2880   0.1472
   sN   H5   1       0.2836   0.1472
   sN   HO   1       0.1625   0.0000
   sN   HS   1       0.2160   0.1506
   sN   HW   1       0.1625   0.0000
   sN   HP   1       0.2605   0.1506
   sN    I   1       0.3719   0.7601
   sN   Cl   1       0.3826   0.3801
   sN   Na   1       0.3289   0.0633
   sN   IB   1       0.6079   0.3801
   sN   MG   1       0.2331   1.1368
   sN    N   1       0.3250   0.4955
   sN   NA   1       0.3250   0.4955
   sN   NB   1       0.3250   0.4955
   sN   NC   1       0.3250   0.4955
   sN   N2   1       0.3250   0.4955
   sN   N3   1       0.3250   0.4955
   sN   N*   1       0.3250   0.4955
   sN    O   1       0.3105   0.5507
   sN   OB   1       0.3105   0.5507
   sN   OW   1       0.3200   0.4687
   sN   OH   1       0.3158   0.5513
   sN   O3   1       0.3158   0.5513
   sN   OS   1       0.3125   0.4955
   sN   O2   1       0.3105   0.5507
   sN    P   1       0.3496   0.5375
   sN    S   1       0.3407   0.6009
   sN   SH   1       0.3407   0.6009
   sN   CU   1       0.3325   0.3524
   sN   FE   1       0.1625   0.0000
   sN    K   1       0.3993   0.0218
   sN   Rb   1       0.4258   0.0157
   sN   Li   1       0.2638   0.1626
   sN   Zn   1       0.2605   0.1344
   sN HW_tip4pew   1       0.1625   0.0000
   sN OW_tip4pew   1       0.3207   0.4848
   sN HW_tip4p   1       0.1625   0.0000
   sN OW_tip4p   1       0.3202   0.4732
   sN HW_tip5p   1       0.1625   0.0000
   sN OW_tip5p   1       0.3185   0.4807
   sN HW_tip4pd   1       0.1625   0.0000
   sN OW_tip4pd   1       0.3207   0.5873
   sN   MW   1       0.1625   0.0000
   sN MCH3   1       0.1625   0.0000
   sN MNH3   1       0.1625   0.0000
   sN   c3   1       0.3325   0.3975
   sN   hc   1       0.2950   0.1506
   sN    c   1       0.3325   0.3524
   sN    o   1       0.3105   0.5507
   sN    n   1       0.3250   0.4955
   sN   h1   1       0.2861   0.1506
   sN   ca   1       0.3325   0.3524
   sN   ha   1       0.2925   0.1472
   sN   n3   1       0.3250   0.4955
   sN   hx   1       0.2605   0.1506
   sN   n4   1       0.3250   0.4955
   sN   hn   1       0.2160   0.1506
  sNA   Br   1       0.1625   0.0000
  sNA    C   1       0.3325   0.3524
  sNA   C6   1       0.3325   0.3524
  sNA   C5   1       0.3325   0.3524
  sNA   CA   1       0.3325   0.3524
  sNA   CB   1       0.3325   0.3524
  sNA   CC   1       0.3325   0.3524
  sNA   CK   1       0.3325   0.3524
  sNA   CM   1       0.3325   0.3524
  sNA   CN   1       0.3325   0.3524
  sNA   CQ   1       0.3325   0.3524
  sNA   CR   1       0.3325   0.3524
  sNA   CT   1       0.3325   0.3975
  sNA   C1   1       0.3325   0.3975
  sNA   C3   1       0.3325   0.3975
  sNA   C4   1       0.3325   0.3975
  sNA   C7   1       0.3325   0.3975
  sNA   C8   1       0.3325   0.3975
  sNA   C9   1       0.3325   0.3975
  sNA   CV   1       0.3325   0.3524
  sNA   CW   1       0.3325   0.3524
  sNA   C*   1       0.3325   0.3524
  sNA   C0   1       0.3151   0.8149
  sNA    F   1       0.3184   0.2968
  sNA    H   1       0.2160   0.1506
  sNA   HB   1       0.2160   0.1506
  sNA   HC   1       0.2950   0.1506
  sNA   H1   1       0.2861   0.1506
  sNA   H2   1       0.2772   0.1506
  sNA   H3   1       0.2682   0.1506
  sNA   HA   1       0.2925   0.1472
  sNA   H4   1       0.2880   0.1472
  sNA   H5   1       0.2836   0.1472
  sNA   HO   1       0.1625   0.0000
  sNA   HS   1       0.2160   0.1506
  sNA   HW   1       0.1625   0.0000
  sNA   HP   1       0.2605   0.1506
  sNA    I   1       0.3719   0.7601
  sNA   Cl   1       0.3826   0.3801
  sNA   Na   1       0.3289   0.0633
  sNA   IB   1       0.6079   0.3801
  sNA   MG   1       0.2331   1.1368
  sNA    N   1       0.3250   0.4955
  sNA   NA   1       0.3250   0.4955
  sNA   NB   1       0.3250   0.4955
  sNA   NC   1       0.3250   0.4955
  sNA   N2   1       0.3250   0.4955
  sNA   N3   1       0.3250   0.4955
  sNA   N*   1       0.3250   0.4955
  sNA    O   1       0.3105   0.5507
  sNA   OB   1       0.3105   0.5507
  sNA   OW   1       0.3200   0.4687
  sNA   OH   1       0.3158   0.5513
  sNA   O3   1       0.3158   0.5513
  sNA   OS   1       0.3125   0.4955
  sNA   O2   1       0.3105   0.5507
  sNA    P   1       0.3496   0.5375
  sNA    S   1       0.3407   0.6009
  sNA   SH   1       0.3407   0.6009
  sNA   CU   1       0.3325   0.3524
  sNA   FE   1       0.1625   0.0000
  sNA    K   1       0.3993   0.0218
  sNA   Rb   1       0.4258   0.0157
  sNA   Li   1       0.2638   0.1626
  sNA   Zn   1       0.2605   0.1344
  sNA HW_tip4pew   1       0.1625   0.0000
  sNA OW_tip4pew   1       0.3207   0.4848
  sNA HW_tip4p   1       0.1625   0.0000
  sNA OW_tip4p   1       0.3202   0.4732
  sNA HW_tip5p   1       0.1625   0.0000
  sNA OW_tip5p   1       0.3185   0.4807
  sNA HW_tip4pd   1       0.1625   0.0000
  sNA OW_tip4pd   1       0.3207   0.5873
  sNA   MW   1       0.1625   0.0000
  sNA MCH3   1       0.1625   0.0000
  sNA MNH3   1       0.1625   0.0000
  sNA   c3   1       0.3325   0.3975
  sNA   hc   1       0.2950   0.1506
  sNA    c   1       0.3325   0.3524
  sNA    o   1       0.3105   0.5507
  sNA    n   1       0.3250   0.4955
  sNA   h1   1       0.2861   0.1506
  sNA   ca   1       0.3325   0.3524
  sNA   ha   1       0.2925   0.1472
  sNA   n3   1       0.3250   0.4955
  sNA   hx   1       0.2605   0.1506
  sNA   n4   1       0.3250   0.4955
  sNA   hn   1       0.2160   0.1506
  sNB   Br   1       0.1625   0.0000
  sNB    C   1       0.3325   0.3524
  sNB   C6   1       0.3325   0.3524
  sNB   C5   1       0.3325   0.3524
  sNB   CA   1       0.3325   0.3524
  sNB   CB   1       0.3325   0.3524
  sNB   CC   1       0.3325   0.3524
  sNB   CK   1       0.3325   0.3524
  sNB   CM   1       0.3325   0.3524
  sNB   CN   1       0.3325   0.3524
  sNB   CQ   1       0.3325   0.3524
  sNB   CR   1       0.3325   0.3524
  sNB   CT   1       0.3325   0.3975
  sNB   C1   1       0.3325   0.3975
  sNB   C3   1       0.3325   0.3975
  sNB   C4   1       0.3325   0.3975
  sNB   C7   1       0.3325   0.3975
  sNB   C8   1       0.3325   0.3975
  sNB   C9   1       0.3325   0.3975
  sNB   CV   1       0.3325   0.3524
  sNB   CW   1       0.3325   0.3524
  sNB   C*   1       0.3325   0.3524
  sNB   C0   1       0.3151   0.8149
  sNB    F   1       0.3184   0.2968
  sNB    H   1       0.2160   0.1506
  sNB   HB   1       0.2160   0.1506
  sNB   HC   1       0.2950   0.1506
  sNB   H1   1       0.2861   0.1506
  sNB   H2   1       0.2772   0.1506
  sNB   H3   1       0.2682   0.1506
  sNB   HA   1       0.2925   0.1472
  sNB   H4   1       0.2880   0.1472
  sNB   H5   1       0.2836   0.1472
  sNB   HO   1       0.1625   0.0000
  sNB   HS   1       0.2160   0.1506
  sNB   HW   1       0.1625   0.0000
  sNB   HP   1       0.2605   0.1506
  sNB    I   1       0.3719   0.7601
  sNB   Cl   1       0.3826   0.3801
  sNB   Na   1       0.3289   0.0633
  sNB   IB   1       0.6079   0.3801
  sNB   MG   1       0.2331   1.1368
  sNB    N   1       0.3250   0.4955
  sNB   NA   1       0.3250   0.4955
  sNB   NB   1       0.3250   0.4955
  sNB   NC   1       0.3250   0.4955
  sNB   N2   1       0.3250   0.4955
  sNB   N3   1       0.3250   0.4955
  sNB   N*   1       0.3250   0.4955
  sNB    O   1       0.3105   0.5507
  sNB   OB   1       0.3105   0.5507
  sNB   OW   1       0.3200   0.4687
  sNB   OH   1       0.3158   0.5513
  sNB   O3   1       0.3158   0.5513
  sNB   OS   1       0.3125   0.4955
  sNB   O2   1       0.3105   0.5507
  sNB    P   1       0.3496   0.5375
  sNB    S   1       0.3407   0.6009
  sNB   SH   1       0.3407   0.6009
  sNB   CU   1       0.3325   0.3524
  sNB   FE   1       0.1625   0.0000
  sNB    K   1       0.3993   0.0218
  sNB   Rb   1       0.4258   0.0157
  sNB   Li   1       0.2638   0.1626
  sNB   Zn   1       0.2605   0.1344
  sNB HW_tip4pew   1       0.1625   0.0000
  sNB OW_tip4pew   1       0.3207   0.4848
  sNB HW_tip4p   1       0.1625   0.0000
  sNB OW_tip4p   1       0.3202   0.4732
  sNB HW_tip5p   1       0.1625   0.0000
  sNB OW_tip5p   1       0.3185   0.4807
  sNB HW_tip4pd   1       0.1625   0.0000
  sNB OW_tip4pd   1       0.3207   0.5873
  sNB   MW   1       0.1625   0.0000
  sNB MCH3   1       0.1625   0.0000
  sNB MNH3   1       0.1625   0.0000
  sNB   c3   1       0.3325   0.3975
  sNB   hc   1       0.2950   0.1506
  sNB    c   1       0.3325   0.3524
  sNB    o   1       0.3105   0.5507
  sNB    n   1       0.3250   0.4955
  sNB   h1   1       0.2861   0.1506
  sNB   ca   1       0.3325   0.3524
  sNB   ha   1       0.2925   0.1472
  sNB   n3   1       0.3250   0.4955
  sNB   hx   1       0.2605   0.1506
  sNB   n4   1       0.3250   0.4955
  sNB   hn   1       0.2160   0.1506
  sNC   Br   1       0.1625   0.0000
  sNC    C   1       0.3325   0.3524
  sNC   C6   1       0.3325   0.3524
  sNC   C5   1       0.3325   0.3524
  sNC   CA   1       0.3325   0.3524
  sNC   CB   1       0.3325   0.3524
  sNC   CC   1       0.3325   0.3524
  sNC   CK   1       0.3325   0.3524
  sNC   CM   1       0.3325   0.3524
  sNC   CN   1       0.3325   0.3524
  sNC   CQ   1       0.3325   0.3524
  sNC   CR   1       0.3325   0.3524
  sNC   CT   1       0.3325   0.3975
  sNC   C1   1       0.3325   0.3975
  sNC   C3   1       0.3325   0.3975
  sNC   C4   1       0.3325   0.3975
  sNC   C7   1       0.3325   0.3975
  sNC   C8   1       0.3325   0.3975
  sNC   C9   1       0.3325   0.3975
  sNC   CV   1       0.3325   0.3524
  sNC   CW   1       0.3325   0.3524
  sNC   C*   1       0.3325   0.3524
  sNC   C0   1       0.3151   0.8149
  sNC    F   1       0.3184   0.2968
  sNC    H   1       0.2160   0.1506
  sNC   HB   1       0.2160   0.1506
  sNC   HC   1       0.2950   0.1506
  sNC   H1   1       0.2861   0.1506
  sNC   H2   1       0.2772   0.1506
  sNC   H3   1       0.2682   0.1506
  sNC   HA   1       0.2925   0.1472
  sNC   H4   1       0.2880   0.1472
  sNC   H5   1       0.2836   0.1472
  sNC   HO   1       0.1625   0.0000
  sNC   HS   1       0.2160   0.1506
  sNC   HW   1       0.1625   0.0000
  sNC   HP   1       0.2605   0.1506
  sNC    I   1       0.3719   0.7601
  sNC   Cl   1       0.3826   0.3801
  sNC   Na   1       0.3289   0.0633
  sNC   IB   1       0.6079   0.3801
  sNC   MG   1       0.2331   1.1368
  sNC    N   1       0.3250   0.4955
  sNC   NA   1       0.3250   0.4955
  sNC   NB   1       0.3250   0.4955
  sNC   NC   1       0.3250   0.4955
  sNC   N2   1       0.3250   0.4955
  sNC   N3   1       0.3250   0.4955
  sNC   N*   1       0.3250   0.4955
  sNC    O   1       0.3105   0.5507
  sNC   OB   1       0.3105   0.5507
  sNC   OW   1       0.3200   0.4687
  sNC   OH   1       0.3158   0.5513
  sNC   O3   1       0.3158   0.5513
  sNC   OS   1       0.3125   0.4955
  sNC   O2   1       0.3105   0.5507
  sNC    P   1       0.3496   0.5375
  sNC    S   1       0.3407   0.6009
  sNC   SH   1       0.3407   0.6009
  sNC   CU   1       0.3325   0.3524
  sNC   FE   1       0.1625   0.0000
  sNC    K   1       0.3993   0.0218
  sNC   Rb   1       0.4258   0.0157
  sNC   Li   1       0.2638   0.1626
  sNC   Zn   1       0.2605   0.1344
  sNC HW_tip4pew   1       0.1625   0.0000
  sNC OW_tip4pew   1       0.3207   0.4848
  sNC HW_tip4p   1       0.1625   0.0000
  sNC OW_tip4p   1       0.3202   0.4732
  sNC HW_tip5p   1       0.1625   0.0000
  sNC OW_tip5p   1       0.3185   0.4807
  sNC HW_tip4pd   1       0.1625   0.0000
  sNC OW_tip4pd   1       0.3207   0.5873
  sNC   MW   1       0.1625   0.0000
  sNC MCH3   1       0.1625   0.0000
  sNC MNH3   1       0.1625   0.0000
  sNC   c3   1       0.3325   0.3975
  sNC   hc   1       0.2950   0.1506
  sNC    c   1       0.3325   0.3524
  sNC    o   1       0.3105   0.5507
  sNC    n   1       0.3250   0.4955
  sNC   h1   1       0.2861   0.1506
  sNC   ca   1       0.3325   0.3524
  sNC   ha   1       0.2925   0.1472
  sNC   n3   1       0.3250   0.4955
  sNC   hx   1       0.2605   0.1506
  sNC   n4   1       0.3250   0.4955
  sNC   hn   1       0.2160   0.1506
  sN2   Br   1       0.1625   0.0000
  sN2    C   1       0.3325   0.3524
  sN2   C6   1       0.3325   0.3524
  sN2   C5   1       0.3325   0.3524
  sN2   CA   1       0.3325   0.3524
  sN2   CB   1       0.3325   0.3524
  sN2   CC   1       0.3325   0.3524
  sN2   CK   1       0.3325   0.3524
  sN2   CM   1       0.3325   0.3524
  sN2   CN   1       0.3325   0.3524
  sN2   CQ   1       0.3325   0.3524
  sN2   CR   1       0.3325   0.3524
  sN2   CT   1       0.3325   0.3975
  sN2   C1   1       0.3325   0.3975
  sN2   C3   1       0.3325   0.3975
  sN2   C4   1       0.3325   0.3975
  sN2   C7   1       0.3325   0.3975
  sN2   C8   1       0.3325   0.3975
  sN2   C9   1       0.3325   0.3975
  sN2   CV   1       0.3325   0.3524
  sN2   CW   1       0.3325   0.3524
  sN2   C*   1       0.3325   0.3524
  sN2   C0   1       0.3151   0.8149
  sN2    F   1       0.3184   0.2968
  sN2    H   1       0.2160   0.1506
  sN2   HB   1       0.2160   0.1506
  sN2   HC   1       0.2950   0.1506
  sN2   H1   1       0.2861   0.1506
  sN2   H2   1       0.2772   0.1506
  sN2   H3   1       0.2682   0.1506
  sN2   HA   1       0.2925   0.1472
  sN2   H4   1       0.2880   0.1472
  sN2   H5   1       0.2836   0.1472
  sN2   HO   1       0.1625   0.0000
  sN2   HS   1       0.2160   0.1506
  sN2   HW   1       0.1625   0.0000
  sN2   HP   1       0.2605   0.1506
  sN2    I   1       0.3719   0.7601
  sN2   Cl   1       0.3826   0.3801
  sN2   Na   1       0.3289   0.0633
  sN2   IB   1       0.6079   0.3801
  sN2   MG   1       0.2331   1.1368
  sN2    N   1       0.3250   0.4955
  sN2   NA   1       0.3250   0.4955
  sN2   NB   1       0.3250   0.4955
  sN2   NC   1       0.3250   0.4955
  sN2   N2   1       0.3250   0.4955
  sN2   N3   1       0.3250   0.4955
  sN2   N*   1       0.3250   0.4955
  sN2    O   1       0.3105   0.5507
  sN2   OB   1       0.3105   0.5507
  sN2   OW   1       0.3200   0.4687
  sN2   OH   1       0.3158   0.5513
  sN2   O3   1       0.3158   0.5513
  sN2   OS   1       0.3125   0.4955
  sN2   O2   1       0.3105   0.5507
  sN2    P   1       0.3496   0.5375
  sN2    S   1       0.3407   0.6009
  sN2   SH   1       0.3407   0.6009
  sN2   CU   1       0.3325   0.3524
  sN2   FE   1       0.1625   0.0000
  sN2    K   1       0.3993   0.0218
  sN2   Rb   1       0.4258   0.0157
  sN2   Li   1       0.2638   0.1626
  sN2   Zn   1       0.2605   0.1344
  sN2 HW_tip4pew   1       0.1625   0.0000
  sN2 OW_tip4pew   1       0.3207   0.4848
  sN2 HW_tip4p   1       0.1625   0.0000
  sN2 OW_tip4p   1       0.3202   0.4732
  sN2 HW_tip5p   1       0.1625   0.0000
  sN2 OW_tip5p   1       0.3185   0.4807
  sN2 HW_tip4pd   1       0.1625   0.0000
  sN2 OW_tip4pd   1       0.3207   0.5873
  sN2   MW   1       0.1625   0.0000
  sN2 MCH3   1       0.1625   0.0000
  sN2 MNH3   1       0.1625   0.0000
  sN2   c3   1       0.3325   0.3975
  sN2   hc   1       0.2950   0.1506
  sN2    c   1       0.3325   0.3524
  sN2    o   1       0.3105   0.5507
  sN2    n   1       0.3250   0.4955
  sN2   h1   1       0.2861   0.1506
  sN2   ca   1       0.3325   0.3524
  sN2   ha   1       0.2925   0.1472
  sN2   n3   1       0.3250   0.4955
  sN2   hx   1       0.2605   0.1506
  sN2   n4   1       0.3250   0.4955
  sN2   hn   1       0.2160   0.1506
  sN3   Br   1       0.1625   0.0000
  sN3    C   1       0.3325   0.3524
  sN3   C6   1       0.3325   0.3524
  sN3   C5   1       0.3325   0.3524
  sN3   CA   1       0.3325   0.3524
  sN3   CB   1       0.3325   0.3524
  sN3   CC   1       0.3325   0.3524
  sN3   CK   1       0.3325   0.3524
  sN3   CM   1       0.3325   0.3524
  sN3   CN   1       0.3325   0.3524
  sN3   CQ   1       0.3325   0.3524
  sN3   CR   1       0.3325   0.3524
  sN3   CT   1       0.3325   0.3975
  sN3   C1   1       0.3325   0.3975
  sN3   C3   1       0.3325   0.3975
  sN3   C4   1       0.3325   0.3975
  sN3   C7   1       0.3325   0.3975
  sN3   C8   1       0.3325   0.3975
  sN3   C9   1       0.3325   0.3975
  sN3   CV   1       0.3325   0.3524
  sN3   CW   1       0.3325   0.3524
  sN3   C*   1       0.3325   0.3524
  sN3   C0   1       0.3151   0.8149
  sN3    F   1       0.3184   0.2968
  sN3    H   1       0.2160   0.1506
  sN3   HB   1       0.2160   0.1506
  sN3   HC   1       0.2950   0.1506
  sN3   H1   1       0.2861   0.1506
  sN3   H2   1       0.2772   0.1506
  sN3   H3   1       0.2682   0.1506
  sN3   HA   1       0.2925   0.1472
  sN3   H4   1       0.2880   0.1472
  sN3   H5   1       0.2836   0.1472
  sN3   HO   1       0.1625   0.0000
  sN3   HS   1       0.2160   0.1506
  sN3   HW   1       0.1625   0.0000
  sN3   HP   1       0.2605   0.1506
  sN3    I   1       0.3719   0.7601
  sN3   Cl   1       0.3826   0.3801
  sN3   Na   1       0.3289   0.0633
  sN3   IB   1       0.6079   0.3801
  sN3   MG   1       0.2331   1.1368
  sN3    N   1       0.3250   0.4955
  sN3   NA   1       0.3250   0.4955
  sN3   NB   1       0.3250   0.4955
  sN3   NC   1       0.3250   0.4955
  sN3   N2   1       0.3250   0.4955
  sN3   N3   1       0.3250   0.4955
  sN3   N*   1       0.3250   0.4955
  sN3    O   1       0.3105   0.5507
  sN3   OB   1       0.3105   0.5507
  sN3   OW   1       0.3200   0.4687
  sN3   OH   1       0.3158   0.5513
  sN3   O3   1       0.3158   0.5513
  sN3   OS   1       0.3125   0.4955
  sN3   O2   1       0.3105   0.5507
  sN3    P   1       0.3496   0.5375
  sN3    S   1       0.3407   0.6009
  sN3   SH   1       0.3407   0.6009
  sN3   CU   1       0.3325   0.3524
  sN3   FE   1       0.1625   0.0000
  sN3    K   1       0.3993   0.0218
  sN3   Rb   1       0.4258   0.0157
  sN3   Li   1       0.2638   0.1626
  sN3   Zn   1       0.2605   0.1344
  sN3 HW_tip4pew   1       0.1625   0.0000
  sN3 OW_tip4pew   1       0.3207   0.4848
  sN3 HW_tip4p   1       0.1625   0.0000
  sN3 OW_tip4p   1       0.3202   0.4732
  sN3 HW_tip5p   1       0.1625   0.0000
  sN3 OW_tip5p   1       0.3185   0.4807
  sN3 HW_tip4pd   1       0.1625   0.0000
  sN3 OW_tip4pd   1       0.3207   0.5873
  sN3   MW   1       0.1625   0.0000
  sN3 MCH3   1       0.1625   0.0000
  sN3 MNH3   1       0.1625   0.0000
  sN3   c3   1       0.3325   0.3975
  sN3   hc   1       0.2950   0.1506
  sN3    c   1       0.3325   0.3524
  sN3    o   1       0.3105   0.5507
  sN3    n   1       0.3250   0.4955
  sN3   h1   1       0.2861   0.1506
  sN3   ca   1       0.3325   0.3524
  sN3   ha   1       0.2925   0.1472
  sN3   n3   1       0.3250   0.4955
  sN3   hx   1       0.2605   0.1506
  sN3   n4   1       0.3250   0.4955
  sN3   hn   1       0.2160   0.1506
  sN*   Br   1       0.1625   0.0000
  sN*    C   1       0.3325   0.3524
  sN*   C6   1       0.3325   0.3524
  sN*   C5   1       0.3325   0.3524
  sN*   CA   1       0.3325   0.3524
  sN*   CB   1       0.3325   0.3524
  sN*   CC   1       0.3325   0.3524
  sN*   CK   1       0.3325   0.3524
  sN*   CM   1       0.3325   0.3524
  sN*   CN   1       0.3325   0.3524
  sN*   CQ   1       0.3325   0.3524
  sN*   CR   1       0.3325   0.3524
  sN*   CT   1       0.3325   0.3975
  sN*   C1   1       0.3325   0.3975
  sN*   C3   1       0.3325   0.3975
  sN*   C4   1       0.3325   0.3975
  sN*   C7   1       0.3325   0.3975
  sN*   C8   1       0.3325   0.3975
  sN*   C9   1       0.3325   0.3975
  sN*   CV   1       0.3325   0.3524
  sN*   CW   1       0.3325   0.3524
  sN*   C*   1       0.3325   0.3524
  sN*   C0   1       0.3151   0.8149
  sN*    F   1       0.3184   0.2968
  sN*    H   1       0.2160   0.1506
  sN*   HB   1       0.2160   0.1506
  sN*   HC   1       0.2950   0.1506
  sN*   H1   1       0.2861   0.1506
  sN*   H2   1       0.2772   0.1506
  sN*   H3   1       0.2682   0.1506
  sN*   HA   1       0.2925   0.1472
  sN*   H4   1       0.2880   0.1472
  sN*   H5   1       0.2836   0.1472
  sN*   HO   1       0.1625   0.0000
  sN*   HS   1       0.2160   0.1506
  sN*   HW   1       0.1625   0.0000
  sN*   HP   1       0.2605   0.1506
  sN*    I   1       0.3719   0.7601
  sN*   Cl   1       0.3826   0.3801
  sN*   Na   1       0.3289   0.0633
  sN*   IB   1       0.6079   0.3801
  sN*   MG   1       0.2331   1.1368
  sN*    N   1       0.3250   0.4955
  sN*   NA   1       0.3250   0.4955
  sN*   NB   1       0.3250   0.4955
  sN*   NC   1       0.3250   0.4955
  sN*   N2   1       0.3250   0.4955
  sN*   N3   1       0.3250   0.4955
  sN*   N*   1       0.3250   0.4955
  sN*    O   1       0.3105   0.5507
  sN*   OB   1       0.3105   0.5507
  sN*   OW   1       0.3200   0.4687
  sN*   OH   1       0.3158   0.5513
  sN*   O3   1       0.3158   0.5513
  sN*   OS   1       0.3125   0.4955
  sN*   O2   1       0.3105   0.5507
  sN*    P   1       0.3496   0.5375
  sN*    S   1       0.3407   0.6009
  sN*   SH   1       0.3407   0.6009
  sN*   CU   1       0.3325   0.3524
  sN*   FE   1       0.1625   0.0000
  sN*    K   1       0.3993   0.0218
  sN*   Rb   1       0.4258   0.0157
  sN*   Li   1       0.2638   0.1626
  sN*   Zn   1       0.2605   0.1344
  sN* HW_tip4pew   1       0.1625   0.0000
  sN* OW_tip4pew   1       0.3207   0.4848
  sN* HW_tip4p   1       0.1625   0.0000
  sN* OW_tip4p   1       0.3202   0.4732
  sN* HW_tip5p   1       0.1625   0.0000
  sN* OW_tip5p   1       0.3185   0.4807
  sN* HW_tip4pd   1       0.1625   0.0000
  sN* OW_tip4pd   1       0.3207   0.5873
  sN*   MW   1       0.1625   0.0000
  sN* MCH3   1       0.1625   0.0000
  sN* MNH3   1       0.1625   0.0000
  sN*   c3   1       0.3325   0.3975
  sN*   hc   1       0.2950   0.1506
  sN*    c   1       0.3325   0.3524
  sN*    o   1       0.3105   0.5507
  sN*    n   1       0.3250   0.4955
  sN*   h1   1       0.2861   0.1506
  sN*   ca   1       0.3325   0.3524
  sN*   ha   1       0.2925   0.1472
  sN*   n3   1       0.3250   0.4955
  sN*   hx   1       0.2605   0.1506
  sN*   n4   1       0.3250   0.4955
  sN*   hn   1       0.2160   0.1506
   sO   Br   1       0.1480   0.0000
   sO    C   1       0.3180   0.3917
   sO   C6   1       0.3180   0.3917
   sO   C5   1       0.3180   0.3917
   sO   CA   1       0.3180   0.3917
   sO   CB   1       0.3180   0.3917
   sO   CC   1       0.3180   0.3917
   sO   CK   1       0.3180   0.3917
   sO   CM   1       0.3180   0.3917
   sO   CN   1       0.3180   0.3917
   sO   CQ   1       0.3180   0.3917
   sO   CR   1       0.3180   0.3917
   sO   CT   1       0.3180   0.4418
   sO   C1   1       0.3180   0.4418
   sO   C3   1       0.3180   0.4418
   sO   C4   1       0.3180   0.4418
   sO   C7   1       0.3180   0.4418
   sO   C8   1       0.3180   0.4418
   sO   C9   1       0.3180   0.4418
   sO   CV   1       0.3180   0.3917
   sO   CW   1       0.3180   0.3917
   sO   C*   1       0.3180   0.3917
   sO   C0   1       0.3006   0.9057
   sO    F   1       0.3039   0.3299
   sO    H   1       0.2014   0.1674
   sO   HB   1       0.2014   0.1674
   sO   HC   1       0.2805   0.1674
   sO   H1   1       0.2716   0.1674
   sO   H2   1       0.2627   0.1674
   sO   H3   1       0.2537   0.1674
   sO   HA   1       0.2780   0.1636
   sO   H4   1       0.2735   0.1636
   sO   H5   1       0.2691   0.1636
   sO   HO   1       0.1480   0.0000
   sO   HS   1       0.2014   0.1674
   sO   HW   1       0.1480   0.0000
   sO   HP   1       0.2460   0.1674
   sO    I   1       0.3574   0.8448
   sO   Cl   1       0.3680   0.4224
   sO   Na   1       0.3144   0.0703
   sO   IB   1       0.5934   0.4224
   sO   MG   1       0.2186   1.2635
   sO    N   1       0.3105   0.5507
   sO   NA   1       0.3105   0.5507
   sO   NB   1       0.3105   0.5507
   sO   NC   1       0.3105   0.5507
   sO   N2   1       0.3105   0.5507
   sO   N3   1       0.3105   0.5507
   sO   N*   1       0.3105   0.5507
   sO    O   1       0.2960   0.6121
   sO   OB   1       0.2960   0.6121
   sO   OW   1       0.3055   0.5209
   sO   OH   1       0.3013   0.6127
   sO   O3   1       0.3013   0.6127
   sO   OS   1       0.2980   0.5507
   sO   O2   1       0.2960   0.6121
   sO    P   1       0.3351   0.5974
   sO    S   1       0.3262   0.6679
   sO   SH   1       0.3262   0.6679
   sO   CU   1       0.3180   0.3917
   sO   FE   1       0.1480   0.0000
   sO    K   1       0.3848   0.0242
   sO   Rb   1       0.4113   0.0174
   sO   Li   1       0.2493   0.1807
   sO   Zn   1       0.2460   0.1493
   sO HW_tip4pew   1       0.1480   0.0000
   sO OW_tip4pew   1       0.3062   0.5389
   sO HW_tip4p   1       0.1480   0.0000
   sO OW_tip4p   1       0.3057   0.5259
   sO HW_tip5p   1       0.1480   0.0000
   sO OW_tip5p   1       0.3040   0.5343
   sO HW_tip4pd   1       0.1480   0.0000
   sO OW_tip4pd   1       0.3062   0.6527
   sO   MW   1       0.1480   0.0000
   sO MCH3   1       0.1480   0.0000
   sO MNH3   1       0.1480   0.0000
   sO   c3   1       0.3180   0.4418
   sO   hc   1       0.2805   0.1674
   sO    c   1       0.3180   0.3917
   sO    o   1       0.2960   0.6121
   sO    n   1       0.3105   0.5507
   sO   h1   1       0.2716   0.1674
   sO   ca   1       0.3180   0.3917
   sO   ha   1       0.2780   0.1636
   sO   n3   1       0.3105   0.5507
   sO   hx   1       0.2460   0.1674
   sO   n4   1       0.3105   0.5507
   sO   hn   1       0.2014   0.1674
  sOB   Br   1       0.1480   0.0000
  sOB    C   1       0.3180   0.3917
  sOB   C6   1       0.3180   0.3917
  sOB   C5   1       0.3180   0.3917
  sOB   CA   1       0.3180   0.3917
  sOB   CB   1       0.3180   0.3917
  sOB   CC   1       0.3180   0.3917
  sOB   CK   1       0.3180   0.3917
  sOB   CM   1       0.3180   0.3917
  sOB   CN   1       0.3180   0.3917
  sOB   CQ   1       0.3180   0.3917
  sOB   CR   1       0.3180   0.3917
  sOB   CT   1       0.3180   0.4418
  sOB   C1   1       0.3180   0.4418
  sOB   C3   1       0.3180   0.4418
  sOB   C4   1       0.3180   0.4418
  sOB   C7   1       0.3180   0.4418
  sOB   C8   1       0.3180   0.4418
  sOB   C9   1       0.3180   0.4418
  sOB   CV   1       0.3180   0.3917
  sOB   CW   1       0.3180   0.3917
  sOB   C*   1       0.3180   0.3917
  sOB   C0   1       0.3006   0.9057
  sOB    F   1       0.3039   0.3299
  sOB    H   1       0.2014   0.1674
  sOB   HB   1       0.2014   0.1674
  sOB   HC   1       0.2805   0.1674
  sOB   H1   1       0.2716   0.1674
  sOB   H2   1       0.2627   0.1674
  sOB   H3   1       0.2537   0.1674
  sOB   HA   1       0.2780   0.1636
  sOB   H4   1       0.2735   0.1636
  sOB   H5   1       0.2691   0.1636
  sOB   HO   1       0.1480   0.0000
  sOB   HS   1       0.2014   0.1674
  sOB   HW   1       0.1480   0.0000
  sOB   HP   1       0.2460   0.1674
  sOB    I   1       0.3574   0.8448
  sOB   Cl   1       0.3680   0.4224
  sOB   Na   1       0.3144   0.0703
  sOB   IB   1       0.5934   0.4224
  sOB   MG   1       0.2186   1.2635
  sOB    N   1       0.3105   0.5507
  sOB   NA   1       0.3105   0.5507
  sOB   NB   1       0.3105   0.5507
  sOB   NC   1       0.3105   0.5507
  sOB   N2   1       0.3105   0.5507
  sOB   N3   1       0.3105   0.5507
  sOB   N*   1       0.3105   0.5507
  sOB    O   1       0.2960   0.6121
  sOB   OB   1       0.2960   0.6121
  sOB   OW   1       0.3055   0.5209
  sOB   OH   1       0.3013   0.6127
  sOB   O3   1       0.3013   0.6127
  sOB   OS   1       0.2980   0.5507
  sOB   O2   1       0.2960   0.6121
  sOB    P   1       0.3351   0.5974
  sOB    S   1       0.3262   0.6679
  sOB   SH   1       0.3262   0.6679
  sOB   CU   1       0.3180   0.3917
  sOB   FE   1       0.1480   0.0000
  sOB    K   1       0.3848   0.0242
  sOB   Rb   1       0.4113   0.0174
  sOB   Li   1       0.2493   0.1807
  sOB   Zn   1       0.2460   0.1493
  sOB HW_tip4pew   1       0.1480   0.0000
  sOB OW_tip4pew   1       0.3062   0.5389
  sOB HW_tip4p   1       0.1480   0.0000
  sOB OW_tip4p   1       0.3057   0.5259
  sOB HW_tip5p   1       0.1480   0.0000
  sOB OW_tip5p   1       0.3040   0.5343
  sOB HW_tip4pd   1       0.1480   0.0000
  sOB OW_tip4pd   1       0.3062   0.6527
  sOB   MW   1       0.1480   0.0000
  sOB MCH3   1       0.1480   0.0000
  sOB MNH3   1       0.1480   0.0000
  sOB   c3   1       0.3180   0.4418
  sOB   hc   1       0.2805   0.1674
  sOB    c   1       0.3180   0.3917
  sOB    o   1       0.2960   0.6121
  sOB    n   1       0.3105   0.5507
  sOB   h1   1       0.2716   0.1674
  sOB   ca   1       0.3180   0.3917
  sOB   ha   1       0.2780   0.1636
  sOB   n3   1       0.3105   0.5507
  sOB   hx   1       0.2460   0.1674
  sOB   n4   1       0.3105   0.5507
  sOB   hn   1       0.2014   0.1674
  sOW   Br   1       0.1575   0.0000
  sOW    C   1       0.3275   0.3334
  sOW   C6   1       0.3275   0.3334
  sOW   C5   1       0.3275   0.3334
  sOW   CA   1       0.3275   0.3334
  sOW   CB   1       0.3275   0.3334
  sOW   CC   1       0.3275   0.3334
  sOW   CK   1       0.3275   0.3334
  sOW   CM   1       0.3275   0.3334
  sOW   CN   1       0.3275   0.3334
  sOW   CQ   1       0.3275   0.3334
  sOW   CR   1       0.3275   0.3334
  sOW   CT   1       0.3275   0.3760
  sOW   C1   1       0.3275   0.3760
  sOW   C3   1       0.3275   0.3760
  sOW   C4   1       0.3275   0.3760
  sOW   C7   1       0.3275   0.3760
  sOW   C8   1       0.3275   0.3760
  sOW   C9   1       0.3275   0.3760
  sOW   CV   1       0.3275   0.3334
  sOW   CW   1       0.3275   0.3334
  sOW   C*   1       0.3275   0.3334
  sOW   C0   1       0.3102   0.7708
  sOW    F   1       0.3134   0.2808
  sOW    H   1       0.2110   0.1424
  sOW   HB   1       0.2110   0.1424
  sOW   HC   1       0.2900   0.1424
  sOW   H1   1       0.2811   0.1424
  sOW   H2   1       0.2722   0.1424
  sOW   H3   1       0.2633   0.1424
  sOW   HA   1       0.2875   0.1392
  sOW   H4   1       0.2831   0.1392
  sOW   H5   1       0.2786   0.1392
  sOW   HO   1       0.1575   0.0000
  sOW   HS   1       0.2110   0.1424
  sOW   HW   1       0.1575   0.0000
  sOW   HP   1       0.2555   0.1424
  sOW    I   1       0.3669   0.7190
  sOW   Cl   1       0.3776   0.3595
  sOW   Na   1       0.3240   0.0598
  sOW   IB   1       0.6030   0.3595
  sOW   MG   1       0.2281   1.0753
  sOW    N   1       0.3200   0.4687
  sOW   NA   1       0.3200   0.4687
  sOW   NB   1       0.3200   0.4687
  sOW   NC   1       0.3200   0.4687
  sOW   N2   1       0.3200   0.4687
  sOW   N3   1       0.3200   0.4687
  sOW   N*   1       0.3200   0.4687
  sOW    O   1       0.3055   0.5209
  sOW   OB   1       0.3055   0.5209
  sOW   OW   1       0.3151   0.4433
  sOW   OH   1       0.3109   0.5214
  sOW   O3   1       0.3109   0.5214
  sOW   OS   1       0.3075   0.4687
  sOW   O2   1       0.3055   0.5209
  sOW    P   1       0.3446   0.5084
  sOW    S   1       0.3357   0.5684
  sOW   SH   1       0.3357   0.5684
  sOW   CU   1       0.3275   0.3334
  sOW   FE   1       0.1575   0.0000
  sOW    K   1       0.3943   0.0206
  sOW   Rb   1       0.4209   0.0148
  sOW   Li   1       0.2588   0.1538
  sOW   Zn   1       0.2555   0.1271
  sOW HW_tip4pew   1       0.1575   0.0000
  sOW OW_tip4pew   1       0.3157   0.4586
  sOW HW_tip4p   1       0.1575   0.0000
  sOW OW_tip4p   1       0.3152   0.4476
  sOW HW_tip5p   1       0.1575   0.0000
  sOW OW_tip5p   1       0.3135   0.4547
  sOW HW_tip4pd   1       0.1575   0.0000
  sOW OW_tip4pd   1       0.3158   0.5555
  sOW   MW   1       0.1575   0.0000
  sOW MCH3   1       0.1575   0.0000
  sOW MNH3   1       0.1575   0.0000
  sOW   c3   1       0.3275   0.3760
  sOW   hc   1       0.2900   0.1424
  sOW    c   1       0.3275   0.3334
  sOW    o   1       0.3055   0.5209
  sOW    n   1       0.3200   0.4687
  sOW   h1   1       0.2811   0.1424
  sOW   ca   1       0.3275   0.3334
  sOW   ha   1       0.2875   0.1392
  sOW   n3   1       0.3200   0.4687
  sOW   hx   1       0.2555   0.1424
  sOW   n4   1       0.3200   0.4687
  sOW   hn   1       0.2110   0.1424
  sOH   Br   1       0.1533   0.0000
  sOH    C   1       0.3233   0.3921
  sOH   C6   1       0.3233   0.3921
  sOH   C5   1       0.3233   0.3921
  sOH   CA   1       0.3233   0.3921
  sOH   CB   1       0.3233   0.3921
  sOH   CC   1       0.3233   0.3921
  sOH   CK   1       0.3233   0.3921
  sOH   CM   1       0.3233   0.3921
  sOH   CN   1       0.3233   0.3921
  sOH   CQ   1       0.3233   0.3921
  sOH   CR   1       0.3233   0.3921
  sOH   CT   1       0.3233   0.4422
  sOH   C1   1       0.3233   0.4422
  sOH   C3   1       0.3233   0.4422
  sOH   C4   1       0.3233   0.4422
  sOH   C7   1       0.3233   0.4422
  sOH   C8   1       0.3233   0.4422
  sOH   C9   1       0.3233   0.4422
  sOH   CV   1       0.3233   0.3921
  sOH   CW   1       0.3233   0.3921
  sOH   C*   1       0.3233   0.3921
  sOH   C0   1       0.3059   0.9066
  sOH    F   1       0.3092   0.3302
  sOH    H   1       0.2068   0.1675
  sOH   HB   1       0.2068   0.1675
  sOH   HC   1       0.2858   0.1675
  sOH   H1   1       0.2769   0.1675
  sOH   H2   1       0.2680   0.1675
  sOH   H3   1       0.2591   0.1675
  sOH   HA   1       0.2833   0.1638
  sOH   H4   1       0.2789   0.1638
  sOH   H5   1       0.2744   0.1638
  sOH   HO   1       0.1533   0.0000
  sOH   HS   1       0.2068   0.1675
  sOH   HW   1       0.1533   0.0000
  sOH   HP   1       0.2513   0.1675
  sOH    I   1       0.3627   0.8456
  sOH   Cl   1       0.3734   0.4228
  sOH   Na   1       0.3197   0.0704
  sOH   IB   1       0.5988   0.4228
  sOH   MG   1       0.2239   1.2647
  sOH    N   1       0.3158   0.5513
  sOH   NA   1       0.3158   0.5513
  sOH   NB   1       0.3158   0.5513
  sOH   NC   1       0.3158   0.5513
  sOH   N2   1       0.3158   0.5513
  sOH   N3   1       0.3158   0.5513
  sOH   N*   1       0.3158   0.5513
  sOH    O   1       0.3013   0.6127
  sOH   OB   1       0.3013   0.6127
  sOH   OW   1       0.3109   0.5214
  sOH   OH   1       0.3066   0.6133
  sOH   O3   1       0.3066   0.6133
  sOH   OS   1       0.3033   0.5513
  sOH   O2   1       0.3013   0.6127
  sOH    P   1       0.3404   0.5979
  sOH    S   1       0.3315   0.6685
  sOH   SH   1       0.3315   0.6685
  sOH   CU   1       0.3233   0.3921
  sOH   FE   1       0.1533   0.0000
  sOH    K   1       0.3901   0.0242
  sOH   Rb   1       0.4167   0.0174
  sOH   Li   1       0.2546   0.1809
  sOH   Zn   1       0.2513   0.1495
  sOH HW_tip4pew   1       0.1533   0.0000
  sOH OW_tip4pew   1       0.3115   0.5394
  sOH HW_tip4p   1       0.1533   0.0000
  sOH OW_tip4p   1       0.3110   0.5264
  sOH HW_tip5p   1       0.1533   0.0000
  sOH OW_tip5p   1       0.3093   0.5348
  sOH HW_tip4pd   1       0.1533   0.0000
  sOH OW_tip4pd   1       0.3116   0.6533
  sOH   MW   1       0.1533   0.0000
  sOH MCH3   1       0.1533   0.0000
  sOH MNH3   1       0.1533   0.0000
  sOH   c3   1       0.3233   0.4422
  sOH   hc   1       0.2858   0.1675
  sOH    c   1       0.3233   0.3921
  sOH    o   1       0.3013   0.6127
  sOH    n   1       0.3158   0.5513
  sOH   h1   1       0.2769   0.1675
  sOH   ca   1       0.3233   0.3921
  sOH   ha   1       0.2833   0.1638
  sOH   n3   1       0.3158   0.5513
  sOH   hx   1       0.2513   0.1675
  sOH   n4   1       0.3158   0.5513
  sOH   hn   1       0.2068   0.1675
  sO3   Br   1       0.1533   0.0000
  sO3    C   1       0.3233   0.3921
  sO3   C6   1       0.3233   0.3921
  sO3   C5   1       0.3233   0.3921
  sO3   CA   1       0.3233   0.3921
  sO3   CB   1       0.3233   0.3921
  sO3   CC   1       0.3233   0.3921
  sO3   CK   1       0.3233   0.3921
  sO3   CM   1       0.3233   0.3921
  sO3   CN   1       0.3233   0.3921
  sO3   CQ   1       0.3233   0.3921
  sO3   CR   1       0.3233   0.3921
  sO3   CT   1       0.3233   0.4422
  sO3   C1   1       0.3233   0.4422
  sO3   C3   1       0.3233   0.4422
  sO3   C4   1       0.3233   0.4422
  sO3   C7   1       0.3233   0.4422
  sO3   C8   1       0.3233   0.4422
  sO3   C9   1       0.3233   0.4422
  sO3   CV   1       0.3233   0.3921
  sO3   CW   1       0.3233   0.3921
  sO3   C*   1       0.3233   0.3921
  sO3   C0   1       0.3059   0.9066
  sO3    F   1       0.3092   0.3302
  sO3    H   1       0.2068   0.1675
  sO3   HB   1       0.2068   0.1675
  sO3   HC   1       0.2858   0.1675
  sO3   H1   1       0.2769   0.1675
  sO3   H2   1       0.2680   0.1675
  sO3   H3   1       0.2591   0.1675
  sO3   HA   1       0.2833   0.1638
  sO3   H4   1       0.2789   0.1638
  sO3   H5   1       0.2744   0.1638
  sO3   HO   1       0.1533   0.0000
  sO3   HS   1       0.2068   0.1675
  sO3   HW   1       0.1533   0.0000
  sO3   HP   1       0.2513   0.1675
  sO3    I   1       0.3627   0.8456
  sO3   Cl   1       0.3734   0.4228
  sO3   Na   1       0.3197   0.0704
  sO3   IB   1       0.5988   0.4228
  sO3   MG   1       0.2239   1.2647
  sO3    N   1       0.3158   0.5513
  sO3   NA   1       0.3158   0.5513
  sO3   NB   1       0.3158   0.5513
  sO3   NC   1       0.3158   0.5513
  sO3   N2   1       0.3158   0.5513
  sO3   N3   1       0.3158   0.5513
  sO3   N*   1       0.3158   0.5513
  sO3    O   1       0.3013   0.6127
  sO3   OB   1       0.3013   0.6127
  sO3   OW   1       0.3109   0.5214
  sO3   OH   1       0.3066   0.6133
  sO3   O3   1       0.3066   0.6133
  sO3   OS   1       0.3033   0.5513
  sO3   O2   1       0.3013   0.6127
  sO3    P   1       0.3404   0.5979
  sO3    S   1       0.3315   0.6685
  sO3   SH   1       0.3315   0.6685
  sO3   CU   1       0.3233   0.3921
  sO3   FE   1       0.1533   0.0000
  sO3    K   1       0.3901   0.0242
  sO3   Rb   1       0.4167   0.0174
  sO3   Li   1       0.2546   0.1809
  sO3   Zn   1       0.2513   0.1495
  sO3 HW_tip4pew   1       0.1533   0.0000
  sO3 OW_tip4pew   1       0.3115   0.5394
  sO3 HW_tip4p   1       0.1533   0.0000
  sO3 OW_tip4p   1       0.3110   0.5264
  sO3 HW_tip5p   1       0.1533   0.0000
  sO3 OW_tip5p   1       0.3093   0.5348
  sO3 HW_tip4pd   1       0.1533   0.0000
  sO3 OW_tip4pd   1       0.3116   0.6533
  sO3   MW   1       0.1533   0.0000
  sO3 MCH3   1       0.1533   0.0000
  sO3 MNH3   1       0.1533   0.0000
  sO3   c3   1       0.3233   0.4422
  sO3   hc   1       0.2858   0.1675
  sO3    c   1       0.3233   0.3921
  sO3    o   1       0.3013   0.6127
  sO3    n   1       0.3158   0.5513
  sO3   h1   1       0.2769   0.1675
  sO3   ca   1       0.3233   0.3921
  sO3   ha   1       0.2833   0.1638
  sO3   n3   1       0.3158   0.5513
  sO3   hx   1       0.2513   0.1675
  sO3   n4   1       0.3158   0.5513
  sO3   hn   1       0.2068   0.1675
  sOS   Br   1       0.1500   0.0000
  sOS    C   1       0.3200   0.3524
  sOS   C6   1       0.3200   0.3524
  sOS   C5   1       0.3200   0.3524
  sOS   CA   1       0.3200   0.3524
  sOS   CB   1       0.3200   0.3524
  sOS   CC   1       0.3200   0.3524
  sOS   CK   1       0.3200   0.3524
  sOS   CM   1       0.3200   0.3524
  sOS   CN   1       0.3200   0.3524
  sOS   CQ   1       0.3200   0.3524
  sOS   CR   1       0.3200   0.3524
  sOS   CT   1       0.3200   0.3975
  sOS   C1   1       0.3200   0.3975
  sOS   C3   1       0.3200   0.3975
  sOS   C4   1       0.3200   0.3975
  sOS   C7   1       0.3200   0.3975
  sOS   C8   1       0.3200   0.3975
  sOS   C9   1       0.3200   0.3975
  sOS   CV   1       0.3200   0.3524
  sOS   CW   1       0.3200   0.3524
  sOS   C*   1       0.3200   0.3524
  sOS   C0   1       0.3026   0.8149
  sOS    F   1       0.3059   0.2968
  sOS    H   1       0.2035   0.1506
  sOS   HB   1       0.2035   0.1506
  sOS   HC   1       0.2825   0.1506
  sOS   H1   1       0.2736   0.1506
  sOS   H2   1       0.2647   0.1506
  sOS   H3   1       0.2558   0.1506
  sOS   HA   1       0.2800   0.1472
  sOS   H4   1       0.2755   0.1472
  sOS   H5   1       0.2711   0.1472
  sOS   HO   1       0.1500   0.0000
  sOS   HS   1       0.2035   0.1506
  sOS   HW   1       0.1500   0.0000
  sOS   HP   1       0.2480   0.1506
  sOS    I   1       0.3594   0.7601
  sOS   Cl   1       0.3701   0.3801
  sOS   Na   1       0.3164   0.0633
  sOS   IB   1       0.5954   0.3801
  sOS   MG   1       0.2206   1.1368
  sOS    N   1       0.3125   0.4955
  sOS   NA   1       0.3125   0.4955
  sOS   NB   1       0.3125   0.4955
  sOS   NC   1       0.3125   0.4955
  sOS   N2   1       0.3125   0.4955
  sOS   N3   1       0.3125   0.4955
  sOS   N*   1       0.3125   0.4955
  sOS    O   1       0.2980   0.5507
  sOS   OB   1       0.2980   0.5507
  sOS   OW   1       0.3075   0.4687
  sOS   OH   1       0.3033   0.5513
  sOS   O3   1       0.3033   0.5513
  sOS   OS   1       0.3000   0.4955
  sOS   O2   1       0.2980   0.5507
  sOS    P   1       0.3371   0.5375
  sOS    S   1       0.3282   0.6009
  sOS   SH   1       0.3282   0.6009
  sOS   CU   1       0.3200   0.3524
  sOS   FE   1       0.1500   0.0000
  sOS    K   1       0.3868   0.0218
  sOS   Rb   1       0.4133   0.0157
  sOS   Li   1       0.2513   0.1626
  sOS   Zn   1       0.2480   0.1344
  sOS HW_tip4pew   1       0.1500   0.0000
  sOS OW_tip4pew   1       0.3082   0.4848
  sOS HW_tip4p   1       0.1500   0.0000
  sOS OW_tip4p   1       0.3077   0.4732
  sOS HW_tip5p   1       0.1500   0.0000
  sOS OW_tip5p   1       0.3060   0.4807
  sOS HW_tip4pd   1       0.1500   0.0000
  sOS OW_tip4pd   1       0.3083   0.5873
  sOS   MW   1       0.1500   0.0000
  sOS MCH3   1       0.1500   0.0000
  sOS MNH3   1       0.1500   0.0000
  sOS   c3   1       0.3200   0.3975
  sOS   hc   1       0.2825   0.1506
  sOS    c   1       0.3200   0.3524
  sOS    o   1       0.2980   0.5507
  sOS    n   1       0.3125   0.4955
  sOS   h1   1       0.2736   0.1506
  sOS   ca   1       0.3200   0.3524
  sOS   ha   1       0.2800   0.1472
  sOS   n3   1       0.3125   0.4955
  sOS   hx   1       0.2480   0.1506
  sOS   n4   1       0.3125   0.4955
  sOS   hn   1       0.2035   0.1506
  sO2   Br   1       0.1480   0.0000
  sO2    C   1       0.3180   0.3917
  sO2   C6   1       0.3180   0.3917
  sO2   C5   1       0.3180   0.3917
  sO2   CA   1       0.3180   0.3917
  sO2   CB   1       0.3180   0.3917
  sO2   CC   1       0.3180   0.3917
  sO2   CK   1       0.3180   0.3917
  sO2   CM   1       0.3180   0.3917
  sO2   CN   1       0.3180   0.3917
  sO2   CQ   1       0.3180   0.3917
  sO2   CR   1       0.3180   0.3917
  sO2   CT   1       0.3180   0.4418
  sO2   C1   1       0.3180   0.4418
  sO2   C3   1       0.3180   0.4418
  sO2   C4   1       0.3180   0.4418
  sO2   C7   1       0.3180   0.4418
  sO2   C8   1       0.3180   0.4418
  sO2   C9   1       0.3180   0.4418
  sO2   CV   1       0.3180   0.3917
  sO2   CW   1       0.3180   0.3917
  sO2   C*   1       0.3180   0.3917
  sO2   C0   1       0.3006   0.9057
  sO2    F   1       0.3039   0.3299
  sO2    H   1       0.2014   0.1674
  sO2   HB   1       0.2014   0.1674
  sO2   HC   1       0.2805   0.1674
  sO2   H1   1       0.2716   0.1674
  sO2   H2   1       0.2627   0.1674
  sO2   H3   1       0.2537   0.1674
  sO2   HA   1       0.2780   0.1636
  sO2   H4   1       0.2735   0.1636
  sO2   H5   1       0.2691   0.1636
  sO2   HO   1       0.1480   0.0000
  sO2   HS   1       0.2014   0.1674
  sO2   HW   1       0.1480   0.0000
  sO2   HP   1       0.2460   0.1674
  sO2    I   1       0.3574   0.8448
  sO2   Cl   1       0.3680   0.4224
  sO2   Na   1       0.3144   0.0703
  sO2   IB   1       0.5934   0.4224
  sO2   MG   1       0.2186   1.2635
  sO2    N   1       0.3105   0.5507
  sO2   NA   1       0.3105   0.5507
  sO2   NB   1       0.3105   0.5507
  sO2   NC   1       0.3105   0.5507
  sO2   N2   1       0.3105   0.5507
  sO2   N3   1       0.3105   0.5507
  sO2   N*   1       0.3105   0.5507
  sO2    O   1       0.2960   0.6121
  sO2   OB   1       0.2960   0.6121
  sO2   OW   1       0.3055   0.5209
  sO2   OH   1       0.3013   0.6127
  sO2   O3   1       0.3013   0.6127
  sO2   OS   1       0.2980   0.5507
  sO2   O2   1       0.2960   0.6121
  sO2    P   1       0.3351   0.5974
  sO2    S   1       0.3262   0.6679
  sO2   SH   1       0.3262   0.6679
  sO2   CU   1       0.3180   0.3917
  sO2   FE   1       0.1480   0.0000
  sO2    K   1       0.3848   0.0242
  sO2   Rb   1       0.4113   0.0174
  sO2   Li   1       0.2493   0.1807
  sO2   Zn   1       0.2460   0.1493
  sO2 HW_tip4pew   1       0.1480   0.0000
  sO2 OW_tip4pew   1       0.3062   0.5389
  sO2 HW_tip4p   1       0.1480   0.0000
  sO2 OW_tip4p   1       0.3057   0.5259
  sO2 HW_tip5p   1       0.1480   0.0000
  sO2 OW_tip5p   1       0.3040   0.5343
  sO2 HW_tip4pd   1       0.1480   0.0000
  sO2 OW_tip4pd   1       0.3062   0.6527
  sO2   MW   1       0.1480   0.0000
  sO2 MCH3   1       0.1480   0.0000
  sO2 MNH3   1       0.1480   0.0000
  sO2   c3   1       0.3180   0.4418
  sO2   hc   1       0.2805   0.1674
  sO2    c   1       0.3180   0.3917
  sO2    o   1       0.2960   0.6121
  sO2    n   1       0.3105   0.5507
  sO2   h1   1       0.2716   0.1674
  sO2   ca   1       0.3180   0.3917
  sO2   ha   1       0.2780   0.1636
  sO2   n3   1       0.3105   0.5507
  sO2   hx   1       0.2460   0.1674
  sO2   n4   1       0.3105   0.5507
  sO2   hn   1       0.2014   0.1674
   sP   Br   1       0.1871   0.0000
   sP    C   1       0.3571   0.3823
   sP   C6   1       0.3571   0.3823
   sP   C5   1       0.3571   0.3823
   sP   CA   1       0.3571   0.3823
   sP   CB   1       0.3571   0.3823
   sP   CC   1       0.3571   0.3823
   sP   CK   1       0.3571   0.3823
   sP   CM   1       0.3571   0.3823
   sP   CN   1       0.3571   0.3823
   sP   CQ   1       0.3571   0.3823
   sP   CR   1       0.3571   0.3823
   sP   CT   1       0.3571   0.4312
   sP   C1   1       0.3571   0.4312
   sP   C3   1       0.3571   0.4312
   sP   C4   1       0.3571   0.4312
   sP   C7   1       0.3571   0.4312
   sP   C8   1       0.3571   0.4312
   sP   C9   1       0.3571   0.4312
   sP   CV   1       0.3571   0.3823
   sP   CW   1       0.3571   0.3823
   sP   C*   1       0.3571   0.3823
   sP   C0   1       0.3397   0.8839
   sP    F   1       0.3430   0.3220
   sP    H   1       0.2405   0.1633
   sP   HB   1       0.2405   0.1633
   sP   HC   1       0.3196   0.1633
   sP   H1   1       0.3107   0.1633
   sP   H2   1       0.3017   0.1633
   sP   H3   1       0.2928   0.1633
   sP   HA   1       0.3171   0.1597
   sP   H4   1       0.3126   0.1597
   sP   H5   1       0.3082   0.1597
   sP   HO   1       0.1871   0.0000
   sP   HS   1       0.2405   0.1633
   sP   HW   1       0.1871   0.0000
   sP   HP   1       0.2851   0.1633
   sP    I   1       0.3964   0.8244
   sP   Cl   1       0.4071   0.4122
   sP   Na   1       0.3535   0.0686
   sP   IB   1       0.6325   0.4122
   sP   MG   1       0.2577   1.2330
   sP    N   1       0.3496   0.5375
   sP   NA   1       0.3496   0.5375
   sP   NB   1       0.3496   0.5375
   sP   NC   1       0.3496   0.5375
   sP   N2   1       0.3496   0.5375
   sP   N3   1       0.3496   0.5375
   sP   N*   1       0.3496   0.5375
   sP    O   1       0.3351   0.5974
   sP   OB   1       0.3351   0.5974
   sP   OW   1       0.3446   0.5084
   sP   OH   1       0.3404   0.5979
   sP   O3   1       0.3404   0.5979
   sP   OS   1       0.3371   0.5375
   sP   O2   1       0.3351   0.5974
   sP    P   1       0.3742   0.5830
   sP    S   1       0.3653   0.6518
   sP   SH   1       0.3653   0.6518
   sP   CU   1       0.3571   0.3823
   sP   FE   1       0.1871   0.0000
   sP    K   1       0.4239   0.0236
   sP   Rb   1       0.4504   0.0170
   sP   Li   1       0.2884   0.1763
   sP   Zn   1       0.2851   0.1457
   sP HW_tip4pew   1       0.1871   0.0000
   sP OW_tip4pew   1       0.3453   0.5259
   sP HW_tip4p   1       0.1871   0.0000
   sP OW_tip4p   1       0.3448   0.5132
   sP HW_tip5p   1       0.1871   0.0000
   sP OW_tip5p   1       0.3431   0.5214
   sP HW_tip4pd   1       0.1871   0.0000
   sP OW_tip4pd   1       0.3453   0.6370
   sP   MW   1       0.1871   0.0000
   sP MCH3   1       0.1871   0.0000
   sP MNH3   1       0.1871   0.0000
   sP   c3   1       0.3571   0.4312
   sP   hc   1       0.3196   0.1633
   sP    c   1       0.3571   0.3823
   sP    o   1       0.3351   0.5974
   sP    n   1       0.3496   0.5375
   sP   h1   1       0.3107   0.1633
   sP   ca   1       0.3571   0.3823
   sP   ha   1       0.3171   0.1597
   sP   n3   1       0.3496   0.5375
   sP   hx   1       0.2851   0.1633
   sP   n4   1       0.3496   0.5375
   sP   hn   1       0.2405   0.1633
   sS   Br   1       0.1782   0.0000
   sS    C   1       0.3482   0.4274
   sS   C6   1       0.3482   0.4274
   sS   C5   1       0.3482   0.4274
   sS   CA   1       0.3482   0.4274
   sS   CB   1       0.3482   0.4274
   sS   CC   1       0.3482   0.4274
   sS   CK   1       0.3482   0.4274
   sS   CM   1       0.3482   0.4274
   sS   CN   1       0.3482   0.4274
   sS   CQ   1       0.3482   0.4274
   sS   CR   1       0.3482   0.4274
   sS   CT   1       0.3482   0.4821
   sS   C1   1       0.3482   0.4821
   sS   C3   1       0.3482   0.4821
   sS   C4   1       0.3482   0.4821
   sS   C7   1       0.3482   0.4821
   sS   C8   1       0.3482   0.4821
   sS   C9   1       0.3482   0.4821
   sS   CV   1       0.3482   0.4274
   sS   CW   1       0.3482   0.4274
   sS   C*   1       0.3482   0.4274
   sS   C0   1       0.3308   0.9882
   sS    F   1       0.3341   0.3600
   sS    H   1       0.2316   0.1826
   sS   HB   1       0.2316   0.1826
   sS   HC   1       0.3107   0.1826
   sS   H1   1       0.3017   0.1826
   sS   H2   1       0.2928   0.1826
   sS   H3   1       0.2839   0.1826
   sS   HA   1       0.3082   0.1785
   sS   H4   1       0.3037   0.1785
   sS   H5   1       0.2993   0.1785
   sS   HO   1       0.1782   0.0000
   sS   HS   1       0.2316   0.1826
   sS   HW   1       0.1782   0.0000
   sS   HP   1       0.2762   0.1826
   sS    I   1       0.3875   0.9218
   sS   Cl   1       0.3982   0.4609
   sS   Na   1       0.3446   0.0767
   sS   IB   1       0.6236   0.4609
   sS   MG   1       0.2488   1.3786
   sS    N   1       0.3407   0.6009
   sS   NA   1       0.3407   0.6009
   sS   NB   1       0.3407   0.6009
   sS   NC   1       0.3407   0.6009
   sS   N2   1       0.3407   0.6009
   sS   N3   1       0.3407   0.6009
   sS   N*   1       0.3407   0.6009
   sS    O   1       0.3262   0.6679
   sS   OB   1       0.3262   0.6679
   sS   OW   1       0.3357   0.5684
   sS   OH   1       0.3315   0.6685
   sS   O3   1       0.3315   0.6685
   sS   OS   1       0.3282   0.6009
   sS   O2   1       0.3262   0.6679
   sS    P   1       0.3653   0.6518
   sS    S   1       0.3564   0.7287
   sS   SH   1       0.3564   0.7287
   sS   CU   1       0.3482   0.4274
   sS   FE   1       0.1782   0.0000
   sS    K   1       0.4150   0.0264
   sS   Rb   1       0.4415   0.0190
   sS   Li   1       0.2795   0.1972
   sS   Zn   1       0.2762   0.1629
   sS HW_tip4pew   1       0.1782   0.0000
   sS OW_tip4pew   1       0.3364   0.5880
   sS HW_tip4p   1       0.1782   0.0000
   sS OW_tip4p   1       0.3359   0.5738
   sS HW_tip5p   1       0.1782   0.0000
   sS OW_tip5p   1       0.3342   0.5830
   sS HW_tip4pd   1       0.1782   0.0000
   sS OW_tip4pd   1       0.3364   0.7121
   sS   MW   1       0.1782   0.0000
   sS MCH3   1       0.1782   0.0000
   sS MNH3   1       0.1782   0.0000
   sS   c3   1       0.3482   0.4821
   sS   hc   1       0.3107   0.1826
   sS    c   1       0.3482   0.4274
   sS    o   1       0.3262   0.6679
   sS    n   1       0.3407   0.6009
   sS   h1   1       0.3017   0.1826
   sS   ca   1       0.3482   0.4274
   sS   ha   1       0.3082   0.1785
   sS   n3   1       0.3407   0.6009
   sS   hx   1       0.2762   0.1826
   sS   n4   1       0.3407   0.6009
   sS   hn   1       0.2316   0.1826
  sSH   Br   1       0.1782   0.0000
  sSH    C   1       0.3482   0.4274
  sSH   C6   1       0.3482   0.4274
  sSH   C5   1       0.3482   0.4274
  sSH   CA   1       0.3482   0.4274
  sSH   CB   1       0.3482   0.4274
  sSH   CC   1       0.3482   0.4274
  sSH   CK   1       0.3482   0.4274
  sSH   CM   1       0.3482   0.4274
  sSH   CN   1       0.3482   0.4274
  sSH   CQ   1       0.3482   0.4274
  sSH   CR   1       0.3482   0.4274
  sSH   CT   1       0.3482   0.4821
  sSH   C1   1       0.3482   0.4821
  sSH   C3   1       0.3482   0.4821
  sSH   C4   1       0.3482   0.4821
  sSH   C7   1       0.3482   0.4821
  sSH   C8   1       0.3482   0.4821
  sSH   C9   1       0.3482   0.4821
  sSH   CV   1       0.3482   0.4274
  sSH   CW   1       0.3482   0.4274
  sSH   C*   1       0.3482   0.4274
  sSH   C0   1       0.3308   0.9882
  sSH    F   1       0.3341   0.3600
  sSH    H   1       0.2316   0.1826
  sSH   HB   1       0.2316   0.1826
  sSH   HC   1       0.3107   0.1826
  sSH   H1   1       0.3017   0.1826
  sSH   H2   1       0.2928   0.1826
  sSH   H3   1       0.2839   0.1826
  sSH   HA   1       0.3082   0.1785
  sSH   H4   1       0.3037   0.1785
  sSH   H5   1       0.2993   0.1785
  sSH   HO   1       0.1782   0.0000
  sSH   HS   1       0.2316   0.1826
  sSH   HW   1       0.1782   0.0000
  sSH   HP   1       0.2762   0.1826
  sSH    I   1       0.3875   0.9218
  sSH   Cl   1       0.3982   0.4609
  sSH   Na   1       0.3446   0.0767
  sSH   IB   1       0.6236   0.4609
  sSH   MG   1       0.2488   1.3786
  sSH    N   1       0.3407   0.6009
  sSH   NA   1       0.3407   0.6009
  sSH   NB   1       0.3407   0.6009
  sSH   NC   1       0.3407   0.6009
  sSH   N2   1       0.3407   0.6009
  sSH   N3   1       0.3407   0.6009
  sSH   N*   1       0.3407   0.6009
  sSH    O   1       0.3262   0.6679
  sSH   OB   1       0.3262   0.6679
  sSH   OW   1       0.3357   0.5684
  sSH   OH   1       0.3315   0.6685
  sSH   O3   1       0.3315   0.6685
  sSH   OS   1       0.3282   0.6009
  sSH   O2   1       0.3262   0.6679
  sSH    P   1       0.3653   0.6518
  sSH    S   1       0.3564   0.7287
  sSH   SH   1       0.3564   0.7287
  sSH   CU   1       0.3482   0.4274
  sSH   FE   1       0.1782   0.0000
  sSH    K   1       0.4150   0.0264
  sSH   Rb   1       0.4415   0.0190
  sSH   Li   1       0.2795   0.1972
  sSH   Zn   1       0.2762   0.1629
  sSH HW_tip4pew   1       0.1782   0.0000
  sSH OW_tip4pew   1       0.3364   0.5880
  sSH HW_tip4p   1       0.1782   0.0000
  sSH OW_tip4p   1       0.3359   0.5738
  sSH HW_tip5p   1       0.1782   0.0000
  sSH OW_tip5p   1       0.3342   0.5830
  sSH HW_tip4pd   1       0.1782   0.0000
  sSH OW_tip4pd   1       0.3364   0.7121
  sSH   MW   1       0.1782   0.0000
  sSH MCH3   1       0.1782   0.0000
  sSH MNH3   1       0.1782   0.0000
  sSH   c3   1       0.3482   0.4821
  sSH   hc   1       0.3107   0.1826
  sSH    c   1       0.3482   0.4274
  sSH    o   1       0.3262   0.6679
  sSH    n   1       0.3407   0.6009
  sSH   h1   1       0.3017   0.1826
  sSH   ca   1       0.3482   0.4274
  sSH   ha   1       0.3082   0.1785
  sSH   n3   1       0.3407   0.6009
  sSH   hx   1       0.2762   0.1826
  sSH   n4   1       0.3407   0.6009
  sSH   hn   1       0.2316   0.1826
  sCU   Br   1       0.1700   0.0000
  sCU    C   1       0.3400   0.2507
  sCU   C6   1       0.3400   0.2507
  sCU   C5   1       0.3400   0.2507
  sCU   CA   1       0.3400   0.2507
  sCU   CB   1       0.3400   0.2507
  sCU   CC   1       0.3400   0.2507
  sCU   CK   1       0.3400   0.2507
  sCU   CM   1       0.3400   0.2507
  sCU   CN   1       0.3400   0.2507
  sCU   CQ   1       0.3400   0.2507
  sCU   CR   1       0.3400   0.2507
  sCU   CT   1       0.3400   0.2827
  sCU   C1   1       0.3400   0.2827
  sCU   C3   1       0.3400   0.2827
  sCU   C4   1       0.3400   0.2827
  sCU   C7   1       0.3400   0.2827
  sCU   C8   1       0.3400   0.2827
  sCU   C9   1       0.3400   0.2827
  sCU   CV   1       0.3400   0.2507
  sCU   CW   1       0.3400   0.2507
  sCU   C*   1       0.3400   0.2507
  sCU   C0   1       0.3226   0.5796
  sCU    F   1       0.3259   0.2111
  sCU    H   1       0.2234   0.1071
  sCU   HB   1       0.2234   0.1071
  sCU   HC   1       0.3025   0.1071
  sCU   H1   1       0.2936   0.1071
  sCU   H2   1       0.2846   0.1071
  sCU   H3   1       0.2757   0.1071
  sCU   HA   1       0.3000   0.1047
  sCU   H4   1       0.2955   0.1047
  sCU   H5   1       0.2911   0.1047
  sCU   HO   1       0.1700   0.0000
  sCU   HS   1       0.2234   0.1071
  sCU   HW   1       0.1700   0.0000
  sCU   HP   1       0.2680   0.1071
  sCU    I   1       0.3793   0.5406
  sCU   Cl   1       0.3900   0.2703
  sCU   Na   1       0.3364   0.0450
  sCU   IB   1       0.6154   0.2703
  sCU   MG   1       0.2406   0.8085
  sCU    N   1       0.3325   0.3524
  sCU   NA   1       0.3325   0.3524
  sCU   NB   1       0.3325   0.3524
  sCU   NC   1       0.3325   0.3524
  sCU   N2   1       0.3325   0.3524
  sCU   N3   1       0.3325   0.3524
  sCU   N*   1       0.3325   0.3524
  sCU    O   1       0.3180   0.3917
  sCU   OB   1       0.3180   0.3917
  sCU   OW   1       0.3275   0.3334
  sCU   OH   1       0.3233   0.3921
  sCU   O3   1       0.3233   0.3921
  sCU   OS   1       0.3200   0.3524
  sCU   O2   1       0.3180   0.3917
  sCU    P   1       0.3571   0.3823
  sCU    S   1       0.3482   0.4274
  sCU   SH   1       0.3482   0.4274
  sCU   CU   1       0.3400   0.2507
  sCU   FE   1       0.1700   0.0000
  sCU    K   1       0.4068   0.0155
  sCU   Rb   1       0.4333   0.0111
  sCU   Li   1       0.2713   0.1156
  sCU   Zn   1       0.2680   0.0956
  sCU HW_tip4pew   1       0.1700   0.0000
  sCU OW_tip4pew   1       0.3282   0.3448
  sCU HW_tip4p   1       0.1700   0.0000
  sCU OW_tip4p   1       0.3277   0.3365
  sCU HW_tip5p   1       0.1700   0.0000
  sCU OW_tip5p   1       0.3260   0.3419
  sCU HW_tip4pd   1       0.1700   0.0000
  sCU OW_tip4pd   1       0.3282   0.4177
  sCU   MW   1       0.1700   0.0000
  sCU MCH3   1       0.1700   0.0000
  sCU MNH3   1       0.1700   0.0000
  sCU   c3   1       0.3400   0.2827
  sCU   hc   1       0.3025   0.1071
  sCU    c   1       0.3400   0.2507
  sCU    o   1       0.3180   0.3917
  sCU    n   1       0.3325   0.3524
  sCU   h1   1       0.2936   0.1071
  sCU   ca   1       0.3400   0.2507
  sCU   ha   1       0.3000   0.1047
  sCU   n3   1       0.3325   0.3524
  sCU   hx   1       0.2680   0.1071
  sCU   n4   1       0.3325   0.3524
  sCU   hn   1       0.2234   0.1071
  sFE   Br   1       0.0000   0.0000
  sFE    C   1       0.1700   0.0000
  sFE   C6   1       0.1700   0.0000
  sFE   C5   1       0.1700   0.0000
  sFE   CA   1       0.1700   0.0000
  sFE   CB   1       0.1700   0.0000
  sFE   CC   1       0.1700   0.0000
  sFE   CK   1       0.1700   0.0000
  sFE   CM   1       0.1700   0.0000
  sFE   CN   1       0.1700   0.0000
  sFE   CQ   1       0.1700   0.0000
  sFE   CR   1       0.1700   0.0000
  sFE   CT   1       0.1700   0.0000
  sFE   C1   1       0.1700   0.0000
  sFE   C3   1       0.1700   0.0000
  sFE   C4   1       0.1700   0.0000
  sFE   C7   1       0.1700   0.0000
  sFE   C8   1       0.1700   0.0000
  sFE   C9   1       0.1700   0.0000
  sFE   CV   1       0.1700   0.0000
  sFE   CW   1       0.1700   0.0000
  sFE   C*   1       0.1700   0.0000
  sFE   C0   1       0.1526   0.0000
  sFE    F   1       0.1559   0.0000
  sFE    H   1       0.0535   0.0000
  sFE   HB   1       0.0535   0.0000
  sFE   HC   1       0.1325   0.0000
  sFE   H1   1       0.1236   0.0000
  sFE   H2   1       0.1147   0.0000
  sFE   H3   1       0.1057   0.0000
  sFE   HA   1       0.1300   0.0000
  sFE   H4   1       0.1255   0.0000
  sFE   H5   1       0.1211   0.0000
  sFE   HO   1       0.0000   0.0000
  sFE   HS   1       0.0535   0.0000
  sFE   HW   1       0.0000   0.0000
  sFE   HP   1       0.0980   0.0000
  sFE    I   1       0.2094   0.0000
  sFE   Cl   1       0.2201   0.0000
  sFE   Na   1       0.1664   0.0000
  sFE   IB   1       0.4454   0.0000
  sFE   MG   1       0.0706   0.0000
  sFE    N   1       0.1625   0.0000
  sFE   NA   1       0.1625   0.0000
  sFE   NB   1       0.1625   0.0000
  sFE   NC   1       0.1625   0.0000
  sFE   N2   1       0.1625   0.0000
  sFE   N3   1       0.1625   0.0000
  sFE   N*   1       0.1625   0.0000
  sFE    O   1       0.1480   0.0000
  sFE   OB   1       0.1480   0.0000
  sFE   OW   1       0.1575   0.0000
  sFE   OH   1       0.1533   0.0000
  sFE   O3   1       0.1533   0.0000
  sFE   OS   1       0.1500   0.0000
  sFE   O2   1       0.1480   0.0000
  sFE    P   1       0.1871   0.0000
  sFE    S   1       0.1782   0.0000
  sFE   SH   1       0.1782   0.0000
  sFE   CU   1       0.1700   0.0000
  sFE   FE   1       0.0000   0.0000
  sFE    K   1       0.2368   0.0000
  sFE   Rb   1       0.2633   0.0000
  sFE   Li   1       0.1013   0.0000
  sFE   Zn   1       0.0980   0.0000
  sFE HW_tip4pew   1       0.0000   0.0000
  sFE OW_tip4pew   1       0.1582   0.0000
  sFE HW_tip4p   1       0.0000   0.0000
  sFE OW_tip4p   1       0.1577   0.0000
  sFE HW_tip5p   1       0.0000   0.0000
  sFE OW_tip5p   1       0.1560   0.0000
  sFE HW_tip4pd   1       0.0000   0.0000
  sFE OW_tip4pd   1       0.1583   0.0000
  sFE   MW   1       0.0000   0.0000
  sFE MCH3   1       0.0000   0.0000
  sFE MNH3   1       0.0000   0.0000
  sFE   c3   1       0.1700   0.0000
  sFE   hc   1       0.1325   0.0000
  sFE    c   1       0.1700   0.0000
  sFE    o   1       0.1480   0.0000
  sFE    n   1       0.1625   0.0000
  sFE   h1   1       0.1236   0.0000
  sFE   ca   1       0.1700   0.0000
  sFE   ha   1       0.1300   0.0000
  sFE   n3   1       0.1625   0.0000
  sFE   hx   1       0.0980   0.0000
  sFE   n4   1       0.1625   0.0000
  sFE   hn   1       0.0535   0.0000
   sK   Br   1       0.2368   0.0000
   sK    C   1       0.4068   0.0155
   sK   C6   1       0.4068   0.0155
   sK   C5   1       0.4068   0.0155
   sK   CA   1       0.4068   0.0155
   sK   CB   1       0.4068   0.0155
   sK   CC   1       0.4068   0.0155
   sK   CK   1       0.4068   0.0155
   sK   CM   1       0.4068   0.0155
   sK   CN   1       0.4068   0.0155
   sK   CQ   1       0.4068   0.0155
   sK   CR   1       0.4068   0.0155
   sK   CT   1       0.4068   0.0175
   sK   C1   1       0.4068   0.0175
   sK   C3   1       0.4068   0.0175
   sK   C4   1       0.4068   0.0175
   sK   C7   1       0.4068   0.0175
   sK   C8   1       0.4068   0.0175
   sK   C9   1       0.4068   0.0175
   sK   CV   1       0.4068   0.0155
   sK   CW   1       0.4068   0.0155
   sK   C*   1       0.4068   0.0155
   sK   C0   1       0.3894   0.0358
   sK    F   1       0.3927   0.0130
   sK    H   1       0.2903   0.0066
   sK   HB   1       0.2903   0.0066
   sK   HC   1       0.3693   0.0066
   sK   H1   1       0.3604   0.0066
   sK   H2   1       0.3515   0.0066
   sK   H3   1       0.3426   0.0066
   sK   HA   1       0.3668   0.0065
   sK   H4   1       0.3623   0.0065
   sK   H5   1       0.3579   0.0065
   sK   HO   1       0.2368   0.0000
   sK   HS   1       0.2903   0.0066
   sK   HW   1       0.2368   0.0000
   sK   HP   1       0.3348   0.0066
   sK    I   1       0.4462   0.0334
   sK   Cl   1       0.4569   0.0167
   sK   Na   1       0.4032   0.0028
   sK   IB   1       0.6823   0.0167
   sK   MG   1       0.3074   0.0499
   sK    N   1       0.3993   0.0218
   sK   NA   1       0.3993   0.0218
   sK   NB   1       0.3993   0.0218
   sK   NC   1       0.3993   0.0218
   sK   N2   1       0.3993   0.0218
   sK   N3   1       0.3993   0.0218
   sK   N*   1       0.3993   0.0218
   sK    O   1       0.3848   0.0242
   sK   OB   1       0.3848   0.0242
   sK   OW   1       0.3943   0.0206
   sK   OH   1       0.3901   0.0242
   sK   O3   1       0.3901   0.0242
   sK   OS   1       0.3868   0.0218
   sK   O2   1       0.3848   0.0242
   sK    P   1       0.4239   0.0236
   sK    S   1       0.4150   0.0264
   sK   SH   1       0.4150   0.0264
   sK   CU   1       0.4068   0.0155
   sK   FE   1       0.2368   0.0000
   sK    K   1       0.4736   0.0010
   sK   Rb   1       0.5002   0.0007
   sK   Li   1       0.3381   0.0071
   sK   Zn   1       0.3348   0.0059
   sK HW_tip4pew   1       0.2368   0.0000
   sK OW_tip4pew   1       0.3950   0.0213
   sK HW_tip4p   1       0.2368   0.0000
   sK OW_tip4p   1       0.3945   0.0208
   sK HW_tip5p   1       0.2368   0.0000
   sK OW_tip5p   1       0.3928   0.0211
   sK HW_tip4pd   1       0.2368   0.0000
   sK OW_tip4pd   1       0.3951   0.0258
   sK   MW   1       0.2368   0.0000
   sK MCH3   1       0.2368   0.0000
   sK MNH3   1       0.2368   0.0000
   sK   c3   1       0.4068   0.0175
   sK   hc   1       0.3693   0.0066
   sK    c   1       0.4068   0.0155
   sK    o   1       0.3848   0.0242
   sK    n   1       0.3993   0.0218
   sK   h1   1       0.3604   0.0066
   sK   ca   1       0.4068   0.0155
   sK   ha   1       0.3668   0.0065
   sK   n3   1       0.3993   0.0218
   sK   hx   1       0.3348   0.0066
   sK   n4   1       0.3993   0.0218
   sK   hn   1       0.2903   0.0066
  sRb   Br   1       0.2633   0.0000
  sRb    C   1       0.4333   0.0111
  sRb   C6   1       0.4333   0.0111
  sRb   C5   1       0.4333   0.0111
  sRb   CA   1       0.4333   0.0111
  sRb   CB   1       0.4333   0.0111
  sRb   CC   1       0.4333   0.0111
  sRb   CK   1       0.4333   0.0111
  sRb   CM   1       0.4333   0.0111
  sRb   CN   1       0.4333   0.0111
  sRb   CQ   1       0.4333   0.0111
  sRb   CR   1       0.4333   0.0111
  sRb   CT   1       0.4333   0.0126
  sRb   C1   1       0.4333   0.0126
  sRb   C3   1       0.4333   0.0126
  sRb   C4   1       0.4333   0.0126
  sRb   C7   1       0.4333   0.0126
  sRb   C8   1       0.4333   0.0126
  sRb   C9   1       0.4333   0.0126
  sRb   CV   1       0.4333   0.0111
  sRb   CW   1       0.4333   0.0111
  sRb   C*   1       0.4333   0.0111
  sRb   C0   1       0.4160   0.0258
  sRb    F   1       0.4193   0.0094
  sRb    H   1       0.3168   0.0048
  sRb   HB   1       0.3168   0.0048
  sRb   HC   1       0.3958   0.0048
  sRb   H1   1       0.3869   0.0048
  sRb   H2   1       0.3780   0.0048
  sRb   H3   1       0.3691   0.0048
  sRb   HA   1       0.3933   0.0047
  sRb   H4   1       0.3889   0.0047
  sRb   H5   1       0.3844   0.0047
  sRb   HO   1       0.2633   0.0000
  sRb   HS   1       0.3168   0.0048
  sRb   HW   1       0.2633   0.0000
  sRb   HP   1       0.3613   0.0048
  sRb    I   1       0.4727   0.0240
  sRb   Cl   1       0.4834   0.0120
  sRb   Na   1       0.4298   0.0020
  sRb   IB   1       0.7088   0.0120
  sRb   MG   1       0.3340   0.0359
  sRb    N   1       0.4258   0.0157
  sRb   NA   1       0.4258   0.0157
  sRb   NB   1       0.4258   0.0157
  sRb   NC   1       0.4258   0.0157
  sRb   N2   1       0.4258   0.0157
  sRb   N3   1       0.4258   0.0157
  sRb   N*   1       0.4258   0.0157
  sRb    O   1       0.4113   0.0174
  sRb   OB   1       0.4113   0.0174
  sRb   OW   1       0.4209   0.0148
  sRb   OH   1       0.4167   0.0174
  sRb   O3   1       0.4167   0.0174
  sRb   OS   1       0.4133   0.0157
  sRb   O2   1       0.4113   0.0174
  sRb    P   1       0.4504   0.0170
  sRb    S   1       0.4415   0.0190
  sRb   SH   1       0.4415   0.0190
  sRb   CU   1       0.4333   0.0111
  sRb   FE   1       0.2633   0.0000
  sRb    K   1       0.5002   0.0007
  sRb   Rb   1       0.5267   0.0005
  sRb   Li   1       0.3646   0.0051
  sRb   Zn   1       0.3613   0.0042
  sRb HW_tip4pew   1       0.2633   0.0000
  sRb OW_tip4pew   1       0.4216   0.0153
  sRb HW_tip4p   1       0.2633   0.0000
  sRb OW_tip4p   1       0.4210   0.0150
  sRb HW_tip5p   1       0.2633   0.0000
  sRb OW_tip5p   1       0.4193   0.0152
  sRb HW_tip4pd   1       0.2633   0.0000
  sRb OW_tip4pd   1       0.4216   0.0186
  sRb   MW   1       0.2633   0.0000
  sRb MCH3   1       0.2633   0.0000
  sRb MNH3   1       0.2633   0.0000
  sRb   c3   1       0.4333   0.0126
  sRb   hc   1       0.3958   0.0048
  sRb    c   1       0.4333   0.0111
  sRb    o   1       0.4113   0.0174
  sRb    n   1       0.4258   0.0157
  sRb   h1   1       0.3869   0.0048
  sRb   ca   1       0.4333   0.0111
  sRb   ha   1       0.3933   0.0047
  sRb   n3   1       0.4258   0.0157
  sRb   hx   1       0.3613   0.0048
  sRb   n4   1       0.4258   0.0157
  sRb   hn   1       0.3168   0.0048
   Cs   Br   1       0.3025   0.0000
   Cs    C   1       0.4724   0.0094
   Cs   C6   1       0.4724   0.0094
   Cs   C5   1       0.4724   0.0094
   Cs   CA   1       0.4724   0.0094
   Cs   CB   1       0.4724   0.0094
   Cs   CC   1       0.4724   0.0094
   Cs   CK   1       0.4724   0.0094
   Cs   CM   1       0.4724   0.0094
   Cs   CN   1       0.4724   0.0094
   Cs   CQ   1       0.4724   0.0094
   Cs   CR   1       0.4724   0.0094
   Cs   CT   1       0.4724   0.0106
   Cs   C1   1       0.4724   0.0106
   Cs   C3   1       0.4724   0.0106
   Cs   C4   1       0.4724   0.0106
   Cs   C7   1       0.4724   0.0106
   Cs   C8   1       0.4724   0.0106
   Cs   C9   1       0.4724   0.0106
   Cs   CV   1       0.4724   0.0094
   Cs   CW   1       0.4724   0.0094
   Cs   C*   1       0.4724   0.0094
   Cs   C0   1       0.4551   0.0217
   Cs    F   1       0.4584   0.0079
   Cs    H   1       0.3559   0.0040
   Cs   HB   1       0.3559   0.0040
   Cs   HC   1       0.4349   0.0040
   Cs   H1   1       0.4260   0.0040
   Cs   H2   1       0.4171   0.0040
   Cs   H3   1       0.4082   0.0040
   Cs   HA   1       0.4324   0.0039
   Cs   H4   1       0.4280   0.0039
   Cs   H5   1       0.4235   0.0039
   Cs   HO   1       0.3025   0.0000
   Cs   HS   1       0.3559   0.0040
   Cs   HW   1       0.3025   0.0000
   Cs   HP   1       0.4005   0.0040
   Cs    I   1       0.5118   0.0203
   Cs   Cl   1       0.5225   0.0101
   Cs   Na   1       0.4689   0.0017
   Cs   IB   1       0.7479   0.0101
   Cs   MG   1       0.3731   0.0303
   Cs    N   1       0.4650   0.0132
   Cs   NA   1       0.4650   0.0132
   Cs   NB   1       0.4650   0.0132
   Cs   NC   1       0.4650   0.0132
   Cs   N2   1       0.4650   0.0132
   Cs   N3   1       0.4650   0.0132
   Cs   N*   1       0.4650   0.0132
   Cs    O   1       0.4505   0.0147
   Cs   OB   1       0.4505   0.0147
   Cs   OW   1       0.4600   0.0125
   Cs   OH   1       0.4558   0.0147
   Cs   O3   1       0.4558   0.0147
   Cs   OS   1       0.4525   0.0132
   Cs   O2   1       0.4505   0.0147
   Cs    P   1       0.4895   0.0143
   Cs    S   1       0.4806   0.0160
   Cs   SH   1       0.4806   0.0160
   Cs   CU   1       0.4724   0.0094
   Cs   FE   1       0.3025   0.0000
   Cs    K   1       0.5393   0.0006
   Cs   Rb   1       0.5658   0.0004
   Cs   Li   1       0.4038   0.0043
   Cs   Zn   1       0.4005   0.0036
   Cs HW_tip4pew   1       0.3025   0.0000
   Cs OW_tip4pew   1       0.4607   0.0129
   Cs HW_tip4p   1       0.3025   0.0000
   Cs OW_tip4p   1       0.4601   0.0126
   Cs HW_tip5p   1       0.3025   0.0000
   Cs OW_tip5p   1       0.4585   0.0128
   Cs HW_tip4pd   1       0.3025   0.0000
   Cs OW_tip4pd   1       0.4607   0.0157
   Cs   MW   1       0.3025   0.0000
   Cs MCH3   1       0.3025   0.0000
   Cs MNH3   1       0.3025   0.0000
   Cs   c3   1       0.4724   0.0106
   Cs   hc   1       0.4349   0.0040
   Cs    c   1       0.4724   0.0094
   Cs    o   1       0.4505   0.0147
   Cs    n   1       0.4650   0.0132
   Cs   h1   1       0.4260   0.0040
   Cs   ca   1       0.4724   0.0094
   Cs   ha   1       0.4324   0.0039
   Cs   n3   1       0.4650   0.0132
   Cs   hx   1       0.4005   0.0040
   Cs   n4   1       0.4650   0.0132
   Cs   hn   1       0.3559   0.0040
  sCs   Br   1       0.3025   0.0000
  sCs    C   1       0.4724   0.0077
  sCs   C6   1       0.4724   0.0077
  sCs   C5   1       0.4724   0.0077
  sCs   CA   1       0.4724   0.0077
  sCs   CB   1       0.4724   0.0077
  sCs   CC   1       0.4724   0.0077
  sCs   CK   1       0.4724   0.0077
  sCs   CM   1       0.4724   0.0077
  sCs   CN   1       0.4724   0.0077
  sCs   CQ   1       0.4724   0.0077
  sCs   CR   1       0.4724   0.0077
  sCs   CT   1       0.4724   0.0087
  sCs   C1   1       0.4724   0.0087
  sCs   C3   1       0.4724   0.0087
  sCs   C4   1       0.4724   0.0087
  sCs   C7   1       0.4724   0.0087
  sCs   C8   1       0.4724   0.0087
  sCs   C9   1       0.4724   0.0087
  sCs   CV   1       0.4724   0.0077
  sCs   CW   1       0.4724   0.0077
  sCs   C*   1       0.4724   0.0077
  sCs   C0   1       0.4551   0.0177
  sCs    F   1       0.4584   0.0065
  sCs    H   1       0.3559   0.0033
  sCs   HB   1       0.3559   0.0033
  sCs   HC   1       0.4349   0.0033
  sCs   H1   1       0.4260   0.0033
  sCs   H2   1       0.4171   0.0033
  sCs   H3   1       0.4082   0.0033
  sCs   HA   1       0.4324   0.0032
  sCs   H4   1       0.4280   0.0032
  sCs   H5   1       0.4235   0.0032
  sCs   HO   1       0.3025   0.0000
  sCs   HS   1       0.3559   0.0033
  sCs   HW   1       0.3025   0.0000
  sCs   HP   1       0.4005   0.0033
  sCs    I   1       0.5118   0.0166
  sCs   Cl   1       0.5225   0.0083
  sCs   Na   1       0.4689   0.0014
  sCs   IB   1       0.7479   0.0083
  sCs   MG   1       0.3731   0.0248
  sCs    N   1       0.4650   0.0108
  sCs   NA   1       0.4650   0.0108
  sCs   NB   1       0.4650   0.0108
  sCs   NC   1       0.4650   0.0108
  sCs   N2   1       0.4650   0.0108
  sCs   N3   1       0.4650   0.0108
  sCs   N*   1       0.4650   0.0108
  sCs    O   1       0.4505   0.0120
  sCs   OB   1       0.4505   0.0120
  sCs   OW   1       0.4600   0.0102
  sCs   OH   1       0.4558   0.0120
  sCs   O3   1       0.4558   0.0120
  sCs   OS   1       0.4525   0.0108
  sCs   O2   1       0.4505   0.0120
  sCs    P   1       0.4895   0.0117
  sCs    S   1       0.4806   0.0131
  sCs   SH   1       0.4806   0.0131
  sCs   CU   1       0.4724   0.0077
  sCs   FE   1       0.3025   0.0000
  sCs    K   1       0.5393   0.0005
  sCs   Rb   1       0.5658   0.0003
  sCs   Li   1       0.4038   0.0035
  sCs   Zn   1       0.4005   0.0029
  sCs HW_tip4pew   1       0.3025   0.0000
  sCs OW_tip4pew   1       0.4607   0.0106
  sCs HW_tip4p   1       0.3025   0.0000
  sCs OW_tip4p   1       0.4601   0.0103
  sCs HW_tip5p   1       0.3025   0.0000
  sCs OW_tip5p   1       0.4585   0.0105
  sCs HW_tip4pd   1       0.3025   0.0000
  sCs OW_tip4pd   1       0.4607   0.0128
  sCs   MW   1       0.3025   0.0000
  sCs MCH3   1       0.3025   0.0000
  sCs MNH3   1       0.3025   0.0000
  sCs   c3   1       0.4724   0.0087
  sCs   hc   1       0.4349   0.0033
  sCs    c   1       0.4724   0.0077
  sCs    o   1       0.4505   0.0120
  sCs    n   1       0.4650   0.0108
  sCs   h1   1       0.4260   0.0033
  sCs   ca   1       0.4724   0.0077
  sCs   ha   1       0.4324   0.0032
  sCs   n3   1       0.4650   0.0108
  sCs   hx   1       0.4005   0.0033
  sCs   n4   1       0.4650   0.0108
  sCs   hn   1       0.3559   0.0033
OW_spc   Br   1       0.1583   0.0000
OW_spc    C   1       0.3283   0.4128
OW_spc   C6   1       0.3283   0.4128
OW_spc   C5   1       0.3283   0.4128
OW_spc   CA   1       0.3283   0.4128
OW_spc   CB   1       0.3283   0.4128
OW_spc   CC   1       0.3283   0.4128
OW_spc   CK   1       0.3283   0.4128
OW_spc   CM   1       0.3283   0.4128
OW_spc   CN   1       0.3283   0.4128
OW_spc   CQ   1       0.3283   0.4128
OW_spc   CR   1       0.3283   0.4128
OW_spc   CT   1       0.3283   0.4656
OW_spc   C1   1       0.3283   0.4656
OW_spc   C3   1       0.3283   0.4656
OW_spc   C4   1       0.3283   0.4656
OW_spc   C7   1       0.3283   0.4656
OW_spc   C8   1       0.3283   0.4656
OW_spc   C9   1       0.3283   0.4656
OW_spc   CV   1       0.3283   0.4128
OW_spc   CW   1       0.3283   0.4128
OW_spc   C*   1       0.3283   0.4128
OW_spc   C0   1       0.3109   0.9546
OW_spc    F   1       0.3142   0.3477
OW_spc    H   1       0.2117   0.1764
OW_spc   HB   1       0.2117   0.1764
OW_spc   HC   1       0.2908   0.1764
OW_spc   H1   1       0.2818   0.1764
OW_spc   H2   1       0.2729   0.1764
OW_spc   H3   1       0.2640   0.1764
OW_spc   HA   1       0.2883   0.1724
OW_spc   H4   1       0.2838   0.1724
OW_spc   H5   1       0.2794   0.1724
OW_spc   HO   1       0.1583   0.0000
OW_spc   HS   1       0.2117   0.1764
OW_spc   HW   1       0.1583   0.0000
OW_spc   HP   1       0.2563   0.1764
OW_spc    I   1       0.3676   0.8904
OW_spc   Cl   1       0.3783   0.4452
OW_spc   Na   1       0.3247   0.0741
OW_spc   IB   1       0.6037   0.4452
OW_spc   MG   1       0.2289   1.3316
OW_spc    N   1       0.3208   0.5804
OW_spc   NA   1       0.3208   0.5804
OW_spc   NB   1       0.3208   0.5804
OW_spc   NC   1       0.3208   0.5804
OW_spc   N2   1       0.3208   0.5804
OW_spc   N3   1       0.3208   0.5804
OW_spc   N*   1       0.3208   0.5804
OW_spc    O   1       0.3063   0.6451
OW_spc   OB   1       0.3063   0.6451
OW_spc   OW   1       0.3158   0.5490
OW_spc   OH   1       0.3116   0.6457
OW_spc   O3   1       0.3116   0.6457
OW_spc   OS   1       0.3083   0.5804
OW_spc   O2   1       0.3063   0.6451
OW_spc    P   1       0.3454   0.6296
OW_spc    S   1       0.3365   0.7039
OW_spc   SH   1       0.3365   0.7039
OW_spc   CU   1       0.3283   0.4128
OW_spc   FE   1       0.1583   0.0000
OW_spc    K   1       0.3951   0.0255
OW_spc   Rb   1       0.4216   0.0184
OW_spc   Li   1       0.2596   0.1904
OW_spc   Zn   1       0.2563   0.1574
OW_spc HW_tip4pew   1       0.1583   0.0000
OW_spc OW_tip4pew   1       0.3165   0.5679
OW_spc HW_tip4p   1       0.1583   0.0000
OW_spc OW_tip4p   1       0.3160   0.5542
OW_spc HW_tip5p   1       0.1583   0.0000
OW_spc OW_tip5p   1       0.3143   0.5631
OW_spc HW_tip4pd   1       0.1583   0.0000
OW_spc OW_tip4pd   1       0.3165   0.6879
OW_spc   MW   1       0.1583   0.0000
OW_spc MCH3   1       0.1583   0.0000
OW_spc MNH3   1       0.1583   0.0000
OW_spc   c3   1       0.3283   0.4656
OW_spc   hc   1       0.2908   0.1764
OW_spc    c   1       0.3283   0.4128
OW_spc    o   1       0.3063   0.6451
OW_spc    n   1       0.3208   0.5804
OW_spc   h1   1       0.2818   0.1764
OW_spc   ca   1       0.3283   0.4128
OW_spc   ha   1       0.2883   0.1724
OW_spc   n3   1       0.3208   0.5804
OW_spc   hx   1       0.2563   0.1764
OW_spc   n4   1       0.3208   0.5804
OW_spc   hn   1       0.2117   0.1764
sOW_spc   Br   1       0.1583   0.0000
sOW_spc    C   1       0.3283   0.3371
sOW_spc   C6   1       0.3283   0.3371
sOW_spc   C5   1       0.3283   0.3371
sOW_spc   CA   1       0.3283   0.3371
sOW_spc   CB   1       0.3283   0.3371
sOW_spc   CC   1       0.3283   0.3371
sOW_spc   CK   1       0.3283   0.3371
sOW_spc   CM   1       0.3283   0.3371
sOW_spc   CN   1       0.3283   0.3371
sOW_spc   CQ   1       0.3283   0.3371
sOW_spc   CR   1       0.3283   0.3371
sOW_spc   CT   1       0.3283   0.3802
sOW_spc   C1   1       0.3283   0.3802
sOW_spc   C3   1       0.3283   0.3802
sOW_spc   C4   1       0.3283   0.3802
sOW_spc   C7   1       0.3283   0.3802
sOW_spc   C8   1       0.3283   0.3802
sOW_spc   C9   1       0.3283   0.3802
sOW_spc   CV   1       0.3283   0.3371
sOW_spc   CW   1       0.3283   0.3371
sOW_spc   C*   1       0.3283   0.3371
sOW_spc   C0   1       0.3109   0.7794
sOW_spc    F   1       0.3142   0.2839
sOW_spc    H   1       0.2117   0.1440
sOW_spc   HB   1       0.2117   0.1440
sOW_spc   HC   1       0.2908   0.1440
sOW_spc   H1   1       0.2818   0.1440
sOW_spc   H2   1       0.2729   0.1440
sOW_spc   H3   1       0.2640   0.1440
sOW_spc   HA   1       0.2883   0.1408
sOW_spc   H4   1       0.2838   0.1408
sOW_spc   H5   1       0.2794   0.1408
sOW_spc   HO   1       0.1583   0.0000
sOW_spc   HS   1       0.2117   0.1440
sOW_spc   HW   1       0.1583   0.0000
sOW_spc   HP   1       0.2563   0.1440
sOW_spc    I   1       0.3676   0.7270
sOW_spc   Cl   1       0.3783   0.3635
sOW_spc   Na   1       0.3247   0.0605
sOW_spc   IB   1       0.6037   0.3635
sOW_spc   MG   1       0.2289   1.0872
sOW_spc    N   1       0.3208   0.4739
sOW_spc   NA   1       0.3208   0.4739
sOW_spc   NB   1       0.3208   0.4739
sOW_spc   NC   1       0.3208   0.4739
sOW_spc   N2   1       0.3208   0.4739
sOW_spc   N3   1       0.3208   0.4739
sOW_spc   N*   1       0.3208   0.4739
sOW_spc    O   1       0.3063   0.5267
sOW_spc   OB   1       0.3063   0.5267
sOW_spc   OW   1       0.3158   0.4483
sOW_spc   OH   1       0.3116   0.5272
sOW_spc   O3   1       0.3116   0.5272
sOW_spc   OS   1       0.3083   0.4739
sOW_spc   O2   1       0.3063   0.5267
sOW_spc    P   1       0.3454   0.5140
sOW_spc    S   1       0.3365   0.5747
sOW_spc   SH   1       0.3365   0.5747
sOW_spc   CU   1       0.3283   0.3371
sOW_spc   FE   1       0.1583   0.0000
sOW_spc    K   1       0.3951   0.0208
sOW_spc   Rb   1       0.4216   0.0150
sOW_spc   Li   1       0.2596   0.1555
sOW_spc   Zn   1       0.2563   0.1285
sOW_spc HW_tip4pew   1       0.1583   0.0000
sOW_spc OW_tip4pew   1       0.3165   0.4637
sOW_spc HW_tip4p   1       0.1583   0.0000
sOW_spc OW_tip4p   1       0.3160   0.4525
sOW_spc HW_tip5p   1       0.1583   0.0000
sOW_spc OW_tip5p   1       0.3143   0.4598
sOW_spc HW_tip4pd   1       0.1583   0.0000
sOW_spc OW_tip4pd   1       0.3165   0.5617
sOW_spc   MW   1       0.1583   0.0000
sOW_spc MCH3   1       0.1583   0.0000
sOW_spc MNH3   1       0.1583   0.0000
sOW_spc   c3   1       0.3283   0.3802
sOW_spc   hc   1       0.2908   0.1440
sOW_spc    c   1       0.3283   0.3371
sOW_spc    o   1       0.3063   0.5267
sOW_spc    n   1       0.3208   0.4739
sOW_spc   h1   1       0.2818   0.1440
sOW_spc   ca   1       0.3283   0.3371
sOW_spc   ha   1       0.2883   0.1408
sOW_spc   n3   1       0.3208   0.4739
sOW_spc   hx   1       0.2563   0.1440
sOW_spc   n4   1       0.3208   0.4739
sOW_spc   hn   1       0.2117   0.1440
HW_spc   Br   1       0.0000   0.0000
HW_spc    C   1       0.1700   0.0000
HW_spc   C6   1       0.1700   0.0000
HW_spc   C5   1       0.1700   0.0000
HW_spc   CA   1       0.1700   0.0000
HW_spc   CB   1       0.1700   0.0000
HW_spc   CC   1       0.1700   0.0000
HW_spc   CK   1       0.1700   0.0000
HW_spc   CM   1       0.1700   0.0000
HW_spc   CN   1       0.1700   0.0000
HW_spc   CQ   1       0.1700   0.0000
HW_spc   CR   1       0.1700   0.0000
HW_spc   CT   1       0.1700   0.0000
HW_spc   C1   1       0.1700   0.0000
HW_spc   C3   1       0.1700   0.0000
HW_spc   C4   1       0.1700   0.0000
HW_spc   C7   1       0.1700   0.0000
HW_spc   C8   1       0.1700   0.0000
HW_spc   C9   1       0.1700   0.0000
HW_spc   CV   1       0.1700   0.0000
HW_spc   CW   1       0.1700   0.0000
HW_spc   C*   1       0.1700   0.0000
HW_spc   C0   1       0.1526   0.0000
HW_spc    F   1       0.1559   0.0000
HW_spc    H   1       0.0535   0.0000
HW_spc   HB   1       0.0535   0.0000
HW_spc   HC   1       0.1325   0.0000
HW_spc   H1   1       0.1236   0.0000
HW_spc   H2   1       0.1147   0.0000
HW_spc   H3   1       0.1057   0.0000
HW_spc   HA   1       0.1300   0.0000
HW_spc   H4   1       0.1255   0.0000
HW_spc   H5   1       0.1211   0.0000
HW_spc   HO   1       0.0000   0.0000
HW_spc   HS   1       0.0535   0.0000
HW_spc   HW   1       0.0000   0.0000
HW_spc   HP   1       0.0980   0.0000
HW_spc    I   1       0.2094   0.0000
HW_spc   Cl   1       0.2201   0.0000
HW_spc   Na   1       0.1664   0.0000
HW_spc   IB   1       0.4454   0.0000
HW_spc   MG   1       0.0706   0.0000
HW_spc    N   1       0.1625   0.0000
HW_spc   NA   1       0.1625   0.0000
HW_spc   NB   1       0.1625   0.0000
HW_spc   NC   1       0.1625   0.0000
HW_spc   N2   1       0.1625   0.0000
HW_spc   N3   1       0.1625   0.0000
HW_spc   N*   1       0.1625   0.0000
HW_spc    O   1       0.1480   0.0000
HW_spc   OB   1       0.1480   0.0000
HW_spc   OW   1       0.1575   0.0000
HW_spc   OH   1       0.1533   0.0000
HW_spc   O3   1       0.1533   0.0000
HW_spc   OS   1       0.1500   0.0000
HW_spc   O2   1       0.1480   0.0000
HW_spc    P   1       0.1871   0.0000
HW_spc    S   1       0.1782   0.0000
HW_spc   SH   1       0.1782   0.0000
HW_spc   CU   1       0.1700   0.0000
HW_spc   FE   1       0.0000   0.0000
HW_spc    K   1       0.2368   0.0000
HW_spc   Rb   1       0.2633   0.0000
HW_spc   Li   1       0.1013   0.0000
HW_spc   Zn   1       0.0980   0.0000
HW_spc HW_tip4pew   1       0.0000   0.0000
HW_spc OW_tip4pew   1       0.1582   0.0000
HW_spc HW_tip4p   1       0.0000   0.0000
HW_spc OW_tip4p   1       0.1577   0.0000
HW_spc HW_tip5p   1       0.0000   0.0000
HW_spc OW_tip5p   1       0.1560   0.0000
HW_spc HW_tip4pd   1       0.0000   0.0000
HW_spc OW_tip4pd   1       0.1583   0.0000
HW_spc   MW   1       0.0000   0.0000
HW_spc MCH3   1       0.0000   0.0000
HW_spc MNH3   1       0.0000   0.0000
HW_spc   c3   1       0.1700   0.0000
HW_spc   hc   1       0.1325   0.0000
HW_spc    c   1       0.1700   0.0000
HW_spc    o   1       0.1480   0.0000
HW_spc    n   1       0.1625   0.0000
HW_spc   h1   1       0.1236   0.0000
HW_spc   ca   1       0.1700   0.0000
HW_spc   ha   1       0.1300   0.0000
HW_spc   n3   1       0.1625   0.0000
HW_spc   hx   1       0.0980   0.0000
HW_spc   n4   1       0.1625   0.0000
HW_spc   hn   1       0.0535   0.0000
sHW_spc   Br   1       0.0000   0.0000
sHW_spc    C   1       0.1700   0.0000
sHW_spc   C6   1       0.1700   0.0000
sHW_spc   C5   1       0.1700   0.0000
sHW_spc   CA   1       0.1700   0.0000
sHW_spc   CB   1       0.1700   0.0000
sHW_spc   CC   1       0.1700   0.0000
sHW_spc   CK   1       0.1700   0.0000
sHW_spc   CM   1       0.1700   0.0000
sHW_spc   CN   1       0.1700   0.0000
sHW_spc   CQ   1       0.1700   0.0000
sHW_spc   CR   1       0.1700   0.0000
sHW_spc   CT   1       0.1700   0.0000
sHW_spc   C1   1       0.1700   0.0000
sHW_spc   C3   1       0.1700   0.0000
sHW_spc   C4   1       0.1700   0.0000
sHW_spc   C7   1       0.1700   0.0000
sHW_spc   C8   1       0.1700   0.0000
sHW_spc   C9   1       0.1700   0.0000
sHW_spc   CV   1       0.1700   0.0000
sHW_spc   CW   1       0.1700   0.0000
sHW_spc   C*   1       0.1700   0.0000
sHW_spc   C0   1       0.1526   0.0000
sHW_spc    F   1       0.1559   0.0000
sHW_spc    H   1       0.0535   0.0000
sHW_spc   HB   1       0.0535   0.0000
sHW_spc   HC   1       0.1325   0.0000
sHW_spc   H1   1       0.1236   0.0000
sHW_spc   H2   1       0.1147   0.0000
sHW_spc   H3   1       0.1057   0.0000
sHW_spc   HA   1       0.1300   0.0000
sHW_spc   H4   1       0.1255   0.0000
sHW_spc   H5   1       0.1211   0.0000
sHW_spc   HO   1       0.0000   0.0000
sHW_spc   HS   1       0.0535   0.0000
sHW_spc   HW   1       0.0000   0.0000
sHW_spc   HP   1       0.0980   0.0000
sHW_spc    I   1       0.2094   0.0000
sHW_spc   Cl   1       0.2201   0.0000
sHW_spc   Na   1       0.1664   0.0000
sHW_spc   IB   1       0.4454   0.0000
sHW_spc   MG   1       0.0706   0.0000
sHW_spc    N   1       0.1625   0.0000
sHW_spc   NA   1       0.1625   0.0000
sHW_spc   NB   1       0.1625   0.0000
sHW_spc   NC   1       0.1625   0.0000
sHW_spc   N2   1       0.1625   0.0000
sHW_spc   N3   1       0.1625   0.0000
sHW_spc   N*   1       0.1625   0.0000
sHW_spc    O   1       0.1480   0.0000
sHW_spc   OB   1       0.1480   0.0000
sHW_spc   OW   1       0.1575   0.0000
sHW_spc   OH   1       0.1533   0.0000
sHW_spc   O3   1       0.1533   0.0000
sHW_spc   OS   1       0.1500   0.0000
sHW_spc   O2   1       0.1480   0.0000
sHW_spc    P   1       0.1871   0.0000
sHW_spc    S   1       0.1782   0.0000
sHW_spc   SH   1       0.1782   0.0000
sHW_spc   CU   1       0.1700   0.0000
sHW_spc   FE   1       0.0000   0.0000
sHW_spc    K   1       0.2368   0.0000
sHW_spc   Rb   1       0.2633   0.0000
sHW_spc   Li   1       0.1013   0.0000
sHW_spc   Zn   1       0.0980   0.0000
sHW_spc HW_tip4pew   1       0.0000   0.0000
sHW_spc OW_tip4pew   1       0.1582   0.0000
sHW_spc HW_tip4p   1       0.0000   0.0000
sHW_spc OW_tip4p   1       0.1577   0.0000
sHW_spc HW_tip5p   1       0.0000   0.0000
sHW_spc OW_tip5p   1       0.1560   0.0000
sHW_spc HW_tip4pd   1       0.0000   0.0000
sHW_spc OW_tip4pd   1       0.1583   0.0000
sHW_spc   MW   1       0.0000   0.0000
sHW_spc MCH3   1       0.0000   0.0000
sHW_spc MNH3   1       0.0000   0.0000
sHW_spc   c3   1       0.1700   0.0000
sHW_spc   hc   1       0.1325   0.0000
sHW_spc    c   1       0.1700   0.0000
sHW_spc    o   1       0.1480   0.0000
sHW_spc    n   1       0.1625   0.0000
sHW_spc   h1   1       0.1236   0.0000
sHW_spc   ca   1       0.1700   0.0000
sHW_spc   ha   1       0.1300   0.0000
sHW_spc   n3   1       0.1625   0.0000
sHW_spc   hx   1       0.0980   0.0000
sHW_spc   n4   1       0.1625   0.0000
sHW_spc   hn   1       0.0535   0.0000
  sLi   Br   1       0.1013   0.0000
  sLi    C   1       0.2713   0.1156
  sLi   C6   1       0.2713   0.1156
  sLi   C5   1       0.2713   0.1156
  sLi   CA   1       0.2713   0.1156
  sLi   CB   1       0.2713   0.1156
  sLi   CC   1       0.2713   0.1156
  sLi   CK   1       0.2713   0.1156
  sLi   CM   1       0.2713   0.1156
  sLi   CN   1       0.2713   0.1156
  sLi   CQ   1       0.2713   0.1156
  sLi   CR   1       0.2713   0.1156
  sLi   CT   1       0.2713   0.1304
  sLi   C1   1       0.2713   0.1304
  sLi   C3   1       0.2713   0.1304
  sLi   C4   1       0.2713   0.1304
  sLi   C7   1       0.2713   0.1304
  sLi   C8   1       0.2713   0.1304
  sLi   C9   1       0.2713   0.1304
  sLi   CV   1       0.2713   0.1156
  sLi   CW   1       0.2713   0.1156
  sLi   C*   1       0.2713   0.1156
  sLi   C0   1       0.2539   0.2674
  sLi    F   1       0.2572   0.0974
  sLi    H   1       0.1547   0.0494
  sLi   HB   1       0.1547   0.0494
  sLi   HC   1       0.2338   0.0494
  sLi   H1   1       0.2249   0.0494
  sLi   H2   1       0.2160   0.0494
  sLi   H3   1       0.2070   0.0494
  sLi   HA   1       0.2313   0.0483
  sLi   H4   1       0.2268   0.0483
  sLi   H5   1       0.2224   0.0483
  sLi   HO   1       0.1013   0.0000
  sLi   HS   1       0.1547   0.0494
  sLi   HW   1       0.1013   0.0000
  sLi   HP   1       0.1993   0.0494
  sLi    I   1       0.3107   0.2494
  sLi   Cl   1       0.3213   0.1247
  sLi   Na   1       0.2677   0.0208
  sLi   IB   1       0.5467   0.1247
  sLi   MG   1       0.1719   0.3730
  sLi    N   1       0.2638   0.1626
  sLi   NA   1       0.2638   0.1626
  sLi   NB   1       0.2638   0.1626
  sLi   NC   1       0.2638   0.1626
  sLi   N2   1       0.2638   0.1626
  sLi   N3   1       0.2638   0.1626
  sLi   N*   1       0.2638   0.1626
  sLi    O   1       0.2493   0.1807
  sLi   OB   1       0.2493   0.1807
  sLi   OW   1       0.2588   0.1538
  sLi   OH   1       0.2546   0.1809
  sLi   O3   1       0.2546   0.1809
  sLi   OS   1       0.2513   0.1626
  sLi   O2   1       0.2493   0.1807
  sLi    P   1       0.2884   0.1763
  sLi    S   1       0.2795   0.1972
  sLi   SH   1       0.2795   0.1972
  sLi   CU   1       0.2713   0.1156
  sLi   FE   1       0.1013   0.0000
  sLi    K   1       0.3381   0.0071
  sLi   Rb   1       0.3646   0.0051
  sLi   Li   1       0.2026   0.0533
  sLi   Zn   1       0.1993   0.0441
  sLi HW_tip4pew   1       0.1013   0.0000
  sLi OW_tip4pew   1       0.2595   0.1591
  sLi HW_tip4p   1       0.1013   0.0000
  sLi OW_tip4p   1       0.2590   0.1552
  sLi HW_tip5p   1       0.1013   0.0000
  sLi OW_tip5p   1       0.2573   0.1577
  sLi HW_tip4pd   1       0.1013   0.0000
  sLi OW_tip4pd   1       0.2595   0.1927
  sLi   MW   1       0.1013   0.0000
  sLi MCH3   1       0.1013   0.0000
  sLi MNH3   1       0.1013   0.0000
  sLi   c3   1       0.2713   0.1304
  sLi   hc   1       0.2338   0.0494
  sLi    c   1       0.2713   0.1156
  sLi    o   1       0.2493   0.1807
  sLi    n   1       0.2638   0.1626
  sLi   h1   1       0.2249   0.0494
  sLi   ca   1       0.2713   0.1156
  sLi   ha   1       0.2313   0.0483
  sLi   n3   1       0.2638   0.1626
  sLi   hx   1       0.1993   0.0494
  sLi   n4   1       0.2638   0.1626
  sLi   hn   1       0.1547   0.0494
  sZn   Br   1       0.0980   0.0000
  sZn    C   1       0.2680   0.0956
  sZn   C6   1       0.2680   0.0956
  sZn   C5   1       0.2680   0.0956
  sZn   CA   1       0.2680   0.0956
  sZn   CB   1       0.2680   0.0956
  sZn   CC   1       0.2680   0.0956
  sZn   CK   1       0.2680   0.0956
  sZn   CM   1       0.2680   0.0956
  sZn   CN   1       0.2680   0.0956
  sZn   CQ   1       0.2680   0.0956
  sZn   CR   1       0.2680   0.0956
  sZn   CT   1       0.2680   0.1078
  sZn   C1   1       0.2680   0.1078
  sZn   C3   1       0.2680   0.1078
  sZn   C4   1       0.2680   0.1078
  sZn   C7   1       0.2680   0.1078
  sZn   C8   1       0.2680   0.1078
  sZn   C9   1       0.2680   0.1078
  sZn   CV   1       0.2680   0.0956
  sZn   CW   1       0.2680   0.0956
  sZn   C*   1       0.2680   0.0956
  sZn   C0   1       0.2506   0.2210
  sZn    F   1       0.2539   0.0805
  sZn    H   1       0.1515   0.0408
  sZn   HB   1       0.1515   0.0408
  sZn   HC   1       0.2305   0.0408
  sZn   H1   1       0.2216   0.0408
  sZn   H2   1       0.2127   0.0408
  sZn   H3   1       0.2037   0.0408
  sZn   HA   1       0.2280   0.0399
  sZn   H4   1       0.2235   0.0399
  sZn   H5   1       0.2191   0.0399
  sZn   HO   1       0.0980   0.0000
  sZn   HS   1       0.1515   0.0408
  sZn   HW   1       0.0980   0.0000
  sZn   HP   1       0.1960   0.0408
  sZn    I   1       0.3074   0.2061
  sZn   Cl   1       0.3181   0.1031
  sZn   Na   1       0.2644   0.0172
  sZn   IB   1       0.5434   0.1031
  sZn   MG   1       0.1686   0.3083
  sZn    N   1       0.2605   0.1344
  sZn   NA   1       0.2605   0.1344
  sZn   NB   1       0.2605   0.1344
  sZn   NC   1       0.2605   0.1344
  sZn   N2   1       0.2605   0.1344
  sZn   N3   1       0.2605   0.1344
  sZn   N*   1       0.2605   0.1344
  sZn    O   1       0.2460   0.1493
  sZn   OB   1       0.2460   0.1493
  sZn   OW   1       0.2555   0.1271
  sZn   OH   1       0.2513   0.1495
  sZn   O3   1       0.2513   0.1495
  sZn   OS   1       0.2480   0.1344
  sZn   O2   1       0.2460   0.1493
  sZn    P   1       0.2851   0.1457
  sZn    S   1       0.2762   0.1629
  sZn   SH   1       0.2762   0.1629
  sZn   CU   1       0.2680   0.0956
  sZn   FE   1       0.0980   0.0000
  sZn    K   1       0.3348   0.0059
  sZn   Rb   1       0.3613   0.0042
  sZn   Li   1       0.1993   0.0441
  sZn   Zn   1       0.1960   0.0364
  sZn HW_tip4pew   1       0.0980   0.0000
  sZn OW_tip4pew   1       0.2562   0.1315
  sZn HW_tip4p   1       0.0980   0.0000
  sZn OW_tip4p   1       0.2557   0.1283
  sZn HW_tip5p   1       0.0980   0.0000
  sZn OW_tip5p   1       0.2540   0.1304
  sZn HW_tip4pd   1       0.0980   0.0000
  sZn OW_tip4pd   1       0.2562   0.1592
  sZn   MW   1       0.0980   0.0000
  sZn MCH3   1       0.0980   0.0000
  sZn MNH3   1       0.0980   0.0000
  sZn   c3   1       0.2680   0.1078
  sZn   hc   1       0.2305   0.0408
  sZn    c   1       0.2680   0.0956
  sZn    o   1       0.2460   0.1493
  sZn    n   1       0.2605   0.1344
  sZn   h1   1       0.2216   0.0408
  sZn   ca   1       0.2680   0.0956
  sZn   ha   1       0.2280   0.0399
  sZn   n3   1       0.2605   0.1344
  sZn   hx   1       0.1960   0.0408
  sZn   n4   1       0.2605   0.1344
  sZn   hn   1       0.1515   0.0408
sHW_tip4pew   Br   1       0.0000   0.0000
sHW_tip4pew    C   1       0.1700   0.0000
sHW_tip4pew   C6   1       0.1700   0.0000
sHW_tip4pew   C5   1       0.1700   0.0000
sHW_tip4pew   CA   1       0.1700   0.0000
sHW_tip4pew   CB   1       0.1700   0.0000
sHW_tip4pew   CC   1       0.1700   0.0000
sHW_tip4pew   CK   1       0.1700   0.0000
sHW_tip4pew   CM   1       0.1700   0.0000
sHW_tip4pew   CN   1       0.1700   0.0000
sHW_tip4pew   CQ   1       0.1700   0.0000
sHW_tip4pew   CR   1       0.1700   0.0000
sHW_tip4pew   CT   1       0.1700   0.0000
sHW_tip4pew   C1   1       0.1700   0.0000
sHW_tip4pew   C3   1       0.1700   0.0000
sHW_tip4pew   C4   1       0.1700   0.0000
sHW_tip4pew   C7   1       0.1700   0.0000
sHW_tip4pew   C8   1       0.1700   0.0000
sHW_tip4pew   C9   1       0.1700   0.0000
sHW_tip4pew   CV   1       0.1700   0.0000
sHW_tip4pew   CW   1       0.1700   0.0000
sHW_tip4pew   C*   1       0.1700   0.0000
sHW_tip4pew   C0   1       0.1526   0.0000
sHW_tip4pew    F   1       0.1559   0.0000
sHW_tip4pew    H   1       0.0535   0.0000
sHW_tip4pew   HB   1       0.0535   0.0000
sHW_tip4pew   HC   1       0.1325   0.0000
sHW_tip4pew   H1   1       0.1236   0.0000
sHW_tip4pew   H2   1       0.1147   0.0000
sHW_tip4pew   H3   1       0.1057   0.0000
sHW_tip4pew   HA   1       0.1300   0.0000
sHW_tip4pew   H4   1       0.1255   0.0000
sHW_tip4pew   H5   1       0.1211   0.0000
sHW_tip4pew   HO   1       0.0000   0.0000
sHW_tip4pew   HS   1       0.0535   0.0000
sHW_tip4pew   HW   1       0.0000   0.0000
sHW_tip4pew   HP   1       0.0980   0.0000
sHW_tip4pew    I   1       0.2094   0.0000
sHW_tip4pew   Cl   1       0.2201   0.0000
sHW_tip4pew   Na   1       0.1664   0.0000
sHW_tip4pew   IB   1       0.4454   0.0000
sHW_tip4pew   MG   1       0.0706   0.0000
sHW_tip4pew    N   1       0.1625   0.0000
sHW_tip4pew   NA   1       0.1625   0.0000
sHW_tip4pew   NB   1       0.1625   0.0000
sHW_tip4pew   NC   1       0.1625   0.0000
sHW_tip4pew   N2   1       0.1625   0.0000
sHW_tip4pew   N3   1       0.1625   0.0000
sHW_tip4pew   N*   1       0.1625   0.0000
sHW_tip4pew    O   1       0.1480   0.0000
sHW_tip4pew   OB   1       0.1480   0.0000
sHW_tip4pew   OW   1       0.1575   0.0000
sHW_tip4pew   OH   1       0.1533   0.0000
sHW_tip4pew   O3   1       0.1533   0.0000
sHW_tip4pew   OS   1       0.1500   0.0000
sHW_tip4pew   O2   1       0.1480   0.0000
sHW_tip4pew    P   1       0.1871   0.0000
sHW_tip4pew    S   1       0.1782   0.0000
sHW_tip4pew   SH   1       0.1782   0.0000
sHW_tip4pew   CU   1       0.1700   0.0000
sHW_tip4pew   FE   1       0.0000   0.0000
sHW_tip4pew    K   1       0.2368   0.0000
sHW_tip4pew   Rb   1       0.2633   0.0000
sHW_tip4pew   Li   1       0.1013   0.0000
sHW_tip4pew   Zn   1       0.0980   0.0000
sHW_tip4pew HW_tip4pew   1       0.0000   0.0000
sHW_tip4pew OW_tip4pew   1       0.1582   0.0000
sHW_tip4pew HW_tip4p   1       0.0000   0.0000
sHW_tip4pew OW_tip4p   1       0.1577   0.0000
sHW_tip4pew HW_tip5p   1       0.0000   0.0000
sHW_tip4pew OW_tip5p   1       0.1560   0.0000
sHW_tip4pew HW_tip4pd   1       0.0000   0.0000
sHW_tip4pew OW_tip4pd   1       0.1583   0.0000
sHW_tip4pew   MW   1       0.0000   0.0000
sHW_tip4pew MCH3   1       0.0000   0.0000
sHW_tip4pew MNH3   1       0.0000   0.0000
sHW_tip4pew   c3   1       0.1700   0.0000
sHW_tip4pew   hc   1       0.1325   0.0000
sHW_tip4pew    c   1       0.1700   0.0000
sHW_tip4pew    o   1       0.1480   0.0000
sHW_tip4pew    n   1       0.1625   0.0000
sHW_tip4pew   h1   1       0.1236   0.0000
sHW_tip4pew   ca   1       0.1700   0.0000
sHW_tip4pew   ha   1       0.1300   0.0000
sHW_tip4pew   n3   1       0.1625   0.0000
sHW_tip4pew   hx   1       0.0980   0.0000
sHW_tip4pew   n4   1       0.1625   0.0000
sHW_tip4pew   hn   1       0.0535   0.0000
sOW_tip4pew   Br   1       0.1582   0.0000
sOW_tip4pew    C   1       0.3282   0.3448
sOW_tip4pew   C6   1       0.3282   0.3448
sOW_tip4pew   C5   1       0.3282   0.3448
sOW_tip4pew   CA   1       0.3282   0.3448
sOW_tip4pew   CB   1       0.3282   0.3448
sOW_tip4pew   CC   1       0.3282   0.3448
sOW_tip4pew   CK   1       0.3282   0.3448
sOW_tip4pew   CM   1       0.3282   0.3448
sOW_tip4pew   CN   1       0.3282   0.3448
sOW_tip4pew   CQ   1       0.3282   0.3448
sOW_tip4pew   CR   1       0.3282   0.3448
sOW_tip4pew   CT   1       0.3282   0.3889
sOW_tip4pew   C1   1       0.3282   0.3889
sOW_tip4pew   C3   1       0.3282   0.3889
sOW_tip4pew   C4   1       0.3282   0.3889
sOW_tip4pew   C7   1       0.3282   0.3889
sOW_tip4pew   C8   1       0.3282   0.3889
sOW_tip4pew   C9   1       0.3282   0.3889
sOW_tip4pew   CV   1       0.3282   0.3448
sOW_tip4pew   CW   1       0.3282   0.3448
sOW_tip4pew   C*   1       0.3282   0.3448
sOW_tip4pew   C0   1       0.3108   0.7974
sOW_tip4pew    F   1       0.3141   0.2904
sOW_tip4pew    H   1       0.2117   0.1473
sOW_tip4pew   HB   1       0.2117   0.1473
sOW_tip4pew   HC   1       0.2907   0.1473
sOW_tip4pew   H1   1       0.2818   0.1473
sOW_tip4pew   H2   1       0.2729   0.1473
sOW_tip4pew   H3   1       0.2640   0.1473
sOW_tip4pew   HA   1       0.2882   0.1440
sOW_tip4pew   H4   1       0.2837   0.1440
sOW_tip4pew   H5   1       0.2793   0.1440
sOW_tip4pew   HO   1       0.1582   0.0000
sOW_tip4pew   HS   1       0.2117   0.1473
sOW_tip4pew   HW   1       0.1582   0.0000
sOW_tip4pew   HP   1       0.2562   0.1473
sOW_tip4pew    I   1       0.3676   0.7437
sOW_tip4pew   Cl   1       0.3783   0.3719
sOW_tip4pew   Na   1       0.3246   0.0619
sOW_tip4pew   IB   1       0.6037   0.3719
sOW_tip4pew   MG   1       0.2288   1.1123
sOW_tip4pew    N   1       0.3207   0.4848
sOW_tip4pew   NA   1       0.3207   0.4848
sOW_tip4pew   NB   1       0.3207   0.4848
sOW_tip4pew   NC   1       0.3207   0.4848
sOW_tip4pew   N2   1       0.3207   0.4848
sOW_tip4pew   N3   1       0.3207   0.4848
sOW_tip4pew   N*   1       0.3207   0.4848
sOW_tip4pew    O   1       0.3062   0.5389
sOW_tip4pew   OB   1       0.3062   0.5389
sOW_tip4pew   OW   1       0.3157   0.4586
sOW_tip4pew   OH   1       0.3115   0.5394
sOW_tip4pew   O3   1       0.3115   0.5394
sOW_tip4pew   OS   1       0.3082   0.4848
sOW_tip4pew   O2   1       0.3062   0.5389
sOW_tip4pew    P   1       0.3453   0.5259
sOW_tip4pew    S   1       0.3364   0.5880
sOW_tip4pew   SH   1       0.3364   0.5880
sOW_tip4pew   CU   1       0.3282   0.3448
sOW_tip4pew   FE   1       0.1582   0.0000
sOW_tip4pew    K   1       0.3950   0.0213
sOW_tip4pew   Rb   1       0.4216   0.0153
sOW_tip4pew   Li   1       0.2595   0.1591
sOW_tip4pew   Zn   1       0.2562   0.1315
sOW_tip4pew HW_tip4pew   1       0.1582   0.0000
sOW_tip4pew OW_tip4pew   1       0.3164   0.4744
sOW_tip4pew HW_tip4p   1       0.1582   0.0000
sOW_tip4pew OW_tip4p   1       0.3159   0.4630
sOW_tip4pew HW_tip5p   1       0.1582   0.0000
sOW_tip4pew OW_tip5p   1       0.3142   0.4704
sOW_tip4pew HW_tip4pd   1       0.1582   0.0000
sOW_tip4pew OW_tip4pd   1       0.3165   0.5746
sOW_tip4pew   MW   1       0.1582   0.0000
sOW_tip4pew MCH3   1       0.1582   0.0000
sOW_tip4pew MNH3   1       0.1582   0.0000
sOW_tip4pew   c3   1       0.3282   0.3889
sOW_tip4pew   hc   1       0.2907   0.1473
sOW_tip4pew    c   1       0.3282   0.3448
sOW_tip4pew    o   1       0.3062   0.5389
sOW_tip4pew    n   1       0.3207   0.4848
sOW_tip4pew   h1   1       0.2818   0.1473
sOW_tip4pew   ca   1       0.3282   0.3448
sOW_tip4pew   ha   1       0.2882   0.1440
sOW_tip4pew   n3   1       0.3207   0.4848
sOW_tip4pew   hx   1       0.2562   0.1473
sOW_tip4pew   n4   1       0.3207   0.4848
sOW_tip4pew   hn   1       0.2117   0.1473
sHW_tip4p   Br   1       0.0000   0.0000
sHW_tip4p    C   1       0.1700   0.0000
sHW_tip4p   C6   1       0.1700   0.0000
sHW_tip4p   C5   1       0.1700   0.0000
sHW_tip4p   CA   1       0.1700   0.0000
sHW_tip4p   CB   1       0.1700   0.0000
sHW_tip4p   CC   1       0.1700   0.0000
sHW_tip4p   CK   1       0.1700   0.0000
sHW_tip4p   CM   1       0.1700   0.0000
sHW_tip4p   CN   1       0.1700   0.0000
sHW_tip4p   CQ   1       0.1700   0.0000
sHW_tip4p   CR   1       0.1700   0.0000
sHW_tip4p   CT   1       0.1700   0.0000
sHW_tip4p   C1   1       0.1700   0.0000
sHW_tip4p   C3   1       0.1700   0.0000
sHW_tip4p   C4   1       0.1700   0.0000
sHW_tip4p   C7   1       0.1700   0.0000
sHW_tip4p   C8   1       0.1700   0.0000
sHW_tip4p   C9   1       0.1700   0.0000
sHW_tip4p   CV   1       0.1700   0.0000
sHW_tip4p   CW   1       0.1700   0.0000
sHW_tip4p   C*   1       0.1700   0.0000
sHW_tip4p   C0   1       0.1526   0.0000
sHW_tip4p    F   1       0.1559   0.0000
sHW_tip4p    H   1       0.0535   0.0000
sHW_tip4p   HB   1       0.0535   0.0000
sHW_tip4p   HC   1       0.1325   0.0000
sHW_tip4p   H1   1       0.1236   0.0000
sHW_tip4p   H2   1       0.1147   0.0000
sHW_tip4p   H3   1       0.1057   0.0000
sHW_tip4p   HA   1       0.1300   0.0000
sHW_tip4p   H4   1       0.1255   0.0000
sHW_tip4p   H5   1       0.1211   0.0000
sHW_tip4p   HO   1       0.0000   0.0000
sHW_tip4p   HS   1       0.0535   0.0000
sHW_tip4p   HW   1       0.0000   0.0000
sHW_tip4p   HP   1       0.0980   0.0000
sHW_tip4p    I   1       0.2094   0.0000
sHW_tip4p   Cl   1       0.2201   0.0000
sHW_tip4p   Na   1       0.1664   0.0000
sHW_tip4p   IB   1       0.4454   0.0000
sHW_tip4p   MG   1       0.0706   0.0000
sHW_tip4p    N   1       0.1625   0.0000
sHW_tip4p   NA   1       0.1625   0.0000
sHW_tip4p   NB   1       0.1625   0.0000
sHW_tip4p   NC   1       0.1625   0.0000
sHW_tip4p   N2   1       0.1625   0.0000
sHW_tip4p   N3   1       0.1625   0.0000
sHW_tip4p   N*   1       0.1625   0.0000
sHW_tip4p    O   1       0.1480   0.0000
sHW_tip4p   OB   1       0.1480   0.0000
sHW_tip4p   OW   1       0.1575   0.0000
sHW_tip4p   OH   1       0.1533   0.0000
sHW_tip4p   O3   1       0.1533   0.0000
sHW_tip4p   OS   1       0.1500   0.0000
sHW_tip4p   O2   1       0.1480   0.0000
sHW_tip4p    P   1       0.1871   0.0000
sHW_tip4p    S   1       0.1782   0.0000
sHW_tip4p   SH   1       0.1782   0.0000
sHW_tip4p   CU   1       0.1700   0.0000
sHW_tip4p   FE   1       0.0000   0.0000
sHW_tip4p    K   1       0.2368   0.0000
sHW_tip4p   Rb   1       0.2633   0.0000
sHW_tip4p   Li   1       0.1013   0.0000
sHW_tip4p   Zn   1       0.0980   0.0000
sHW_tip4p HW_tip4pew   1       0.0000   0.0000
sHW_tip4p OW_tip4pew   1       0.1582   0.0000
sHW_tip4p HW_tip4p   1       0.0000   0.0000
sHW_tip4p OW_tip4p   1       0.1577   0.0000
sHW_tip4p HW_tip5p   1       0.0000   0.0000
sHW_tip4p OW_tip5p   1       0.1560   0.0000
sHW_tip4p HW_tip4pd   1       0.0000   0.0000
sHW_tip4p OW_tip4pd   1       0.1583   0.0000
sHW_tip4p   MW   1       0.0000   0.0000
sHW_tip4p MCH3   1       0.0000   0.0000
sHW_tip4p MNH3   1       0.0000   0.0000
sHW_tip4p   c3   1       0.1700   0.0000
sHW_tip4p   hc   1       0.1325   0.0000
sHW_tip4p    c   1       0.1700   0.0000
sHW_tip4p    o   1       0.1480   0.0000
sHW_tip4p    n   1       0.1625   0.0000
sHW_tip4p   h1   1       0.1236   0.0000
sHW_tip4p   ca   1       0.1700   0.0000
sHW_tip4p   ha   1       0.1300   0.0000
sHW_tip4p   n3   1       0.1625   0.0000
sHW_tip4p   hx   1       0.0980   0.0000
sHW_tip4p   n4   1       0.1625   0.0000
sHW_tip4p   hn   1       0.0535   0.0000
sOW_tip4p   Br   1       0.1577   0.0000
sOW_tip4p    C   1       0.3277   0.3365
sOW_tip4p   C6   1       0.3277   0.3365
sOW_tip4p   C5   1       0.3277   0.3365
sOW_tip4p   CA   1       0.3277   0.3365
sOW_tip4p   CB   1       0.3277   0.3365
sOW_tip4p   CC   1       0.3277   0.3365
sOW_tip4p   CK   1       0.3277   0.3365
sOW_tip4p   CM   1       0.3277   0.3365
sOW_tip4p   CN   1       0.3277   0.3365
sOW_tip4p   CQ   1       0.3277   0.3365
sOW_tip4p   CR   1       0.3277   0.3365
sOW_tip4p   CT   1       0.3277   0.3796
sOW_tip4p   C1   1       0.3277   0.3796
sOW_tip4p   C3   1       0.3277   0.3796
sOW_tip4p   C4   1       0.3277   0.3796
sOW_tip4p   C7   1       0.3277   0.3796
sOW_tip4p   C8   1       0.3277   0.3796
sOW_tip4p   C9   1       0.3277   0.3796
sOW_tip4p   CV   1       0.3277   0.3365
sOW_tip4p   CW   1       0.3277   0.3365
sOW_tip4p   C*   1       0.3277   0.3365
sOW_tip4p   C0   1       0.3103   0.7781
sOW_tip4p    F   1       0.3136   0.2834
sOW_tip4p    H   1       0.2111   0.1438
sOW_tip4p   HB   1       0.2111   0.1438
sOW_tip4p   HC   1       0.2902   0.1438
sOW_tip4p   H1   1       0.2812   0.1438
sOW_tip4p   H2   1       0.2723   0.1438
sOW_tip4p   H3   1       0.2634   0.1438
sOW_tip4p   HA   1       0.2877   0.1405
sOW_tip4p   H4   1       0.2832   0.1405
sOW_tip4p   H5   1       0.2788   0.1405
sOW_tip4p   HO   1       0.1577   0.0000
sOW_tip4p   HS   1       0.2111   0.1438
sOW_tip4p   HW   1       0.1577   0.0000
sOW_tip4p   HP   1       0.2557   0.1438
sOW_tip4p    I   1       0.3670   0.7258
sOW_tip4p   Cl   1       0.3777   0.3629
sOW_tip4p   Na   1       0.3241   0.0604
sOW_tip4p   IB   1       0.6031   0.3629
sOW_tip4p   MG   1       0.2283   1.0855
sOW_tip4p    N   1       0.3202   0.4732
sOW_tip4p   NA   1       0.3202   0.4732
sOW_tip4p   NB   1       0.3202   0.4732
sOW_tip4p   NC   1       0.3202   0.4732
sOW_tip4p   N2   1       0.3202   0.4732
sOW_tip4p   N3   1       0.3202   0.4732
sOW_tip4p   N*   1       0.3202   0.4732
sOW_tip4p    O   1       0.3057   0.5259
sOW_tip4p   OB   1       0.3057   0.5259
sOW_tip4p   OW   1       0.3152   0.4476
sOW_tip4p   OH   1       0.3110   0.5264
sOW_tip4p   O3   1       0.3110   0.5264
sOW_tip4p   OS   1       0.3077   0.4732
sOW_tip4p   O2   1       0.3057   0.5259
sOW_tip4p    P   1       0.3448   0.5132
sOW_tip4p    S   1       0.3359   0.5738
sOW_tip4p   SH   1       0.3359   0.5738
sOW_tip4p   CU   1       0.3277   0.3365
sOW_tip4p   FE   1       0.1577   0.0000
sOW_tip4p    K   1       0.3945   0.0208
sOW_tip4p   Rb   1       0.4210   0.0150
sOW_tip4p   Li   1       0.2590   0.1552
sOW_tip4p   Zn   1       0.2557   0.1283
sOW_tip4p HW_tip4pew   1       0.1577   0.0000
sOW_tip4p OW_tip4pew   1       0.3159   0.4630
sOW_tip4p HW_tip4p   1       0.1577   0.0000
sOW_tip4p OW_tip4p   1       0.3154   0.4518
sOW_tip4p HW_tip5p   1       0.1577   0.0000
sOW_tip4p OW_tip5p   1       0.3137   0.4590
sOW_tip4p HW_tip4pd   1       0.1577   0.0000
sOW_tip4p OW_tip4pd   1       0.3159   0.5607
sOW_tip4p   MW   1       0.1577   0.0000
sOW_tip4p MCH3   1       0.1577   0.0000
sOW_tip4p MNH3   1       0.1577   0.0000
sOW_tip4p   c3   1       0.3277   0.3796
sOW_tip4p   hc   1       0.2902   0.1438
sOW_tip4p    c   1       0.3277   0.3365
sOW_tip4p    o   1       0.3057   0.5259
sOW_tip4p    n   1       0.3202   0.4732
sOW_tip4p   h1   1       0.2812   0.1438
sOW_tip4p   ca   1       0.3277   0.3365
sOW_tip4p   ha   1       0.2877   0.1405
sOW_tip4p   n3   1       0.3202   0.4732
sOW_tip4p   hx   1       0.2557   0.1438
sOW_tip4p   n4   1       0.3202   0.4732
sOW_tip4p   hn   1       0.2111   0.1438
sHW_tip5p   Br   1       0.0000   0.0000
sHW_tip5p    C   1       0.1700   0.0000
sHW_tip5p   C6   1       0.1700   0.0000
sHW_tip5p   C5   1       0.1700   0.0000
sHW_tip5p   CA   1       0.1700   0.0000
sHW_tip5p   CB   1       0.1700   0.0000
sHW_tip5p   CC   1       0.1700   0.0000
sHW_tip5p   CK   1       0.1700   0.0000
sHW_tip5p   CM   1       0.1700   0.0000
sHW_tip5p   CN   1       0.1700   0.0000
sHW_tip5p   CQ   1       0.1700   0.0000
sHW_tip5p   CR   1       0.1700   0.0000
sHW_tip5p   CT   1       0.1700   0.0000
sHW_tip5p   C1   1       0.1700   0.0000
sHW_tip5p   C3   1       0.1700   0.0000
sHW_tip5p   C4   1       0.1700   0.0000
sHW_tip5p   C7   1       0.1700   0.0000
sHW_tip5p   C8   1       0.1700   0.0000
sHW_tip5p   C9   1       0.1700   0.0000
sHW_tip5p   CV   1       0.1700   0.0000
sHW_tip5p   CW   1       0.1700   0.0000
sHW_tip5p   C*   1       0.1700   0.0000
sHW_tip5p   C0   1       0.1526   0.0000
sHW_tip5p    F   1       0.1559   0.0000
sHW_tip5p    H   1       0.0535   0.0000
sHW_tip5p   HB   1       0.0535   0.0000
sHW_tip5p   HC   1       0.1325   0.0000
sHW_tip5p   H1   1       0.1236   0.0000
sHW_tip5p   H2   1       0.1147   0.0000
sHW_tip5p   H3   1       0.1057   0.0000
sHW_tip5p   HA   1       0.1300   0.0000
sHW_tip5p   H4   1       0.1255   0.0000
sHW_tip5p   H5   1       0.1211   0.0000
sHW_tip5p   HO   1       0.0000   0.0000
sHW_tip5p   HS   1       0.0535   0.0000
sHW_tip5p   HW   1       0.0000   0.0000
sHW_tip5p   HP   1       0.0980   0.0000
sHW_tip5p    I   1       0.2094   0.0000
sHW_tip5p   Cl   1       0.2201   0.0000
sHW_tip5p   Na   1       0.1664   0.0000
sHW_tip5p   IB   1       0.4454   0.0000
sHW_tip5p   MG   1       0.0706   0.0000
sHW_tip5p    N   1       0.1625   0.0000
sHW_tip5p   NA   1       0.1625   0.0000
sHW_tip5p   NB   1       0.1625   0.0000
sHW_tip5p   NC   1       0.1625   0.0000
sHW_tip5p   N2   1       0.1625   0.0000
sHW_tip5p   N3   1       0.1625   0.0000
sHW_tip5p   N*   1       0.1625   0.0000
sHW_tip5p    O   1       0.1480   0.0000
sHW_tip5p   OB   1       0.1480   0.0000
sHW_tip5p   OW   1       0.1575   0.0000
sHW_tip5p   OH   1       0.1533   0.0000
sHW_tip5p   O3   1       0.1533   0.0000
sHW_tip5p   OS   1       0.1500   0.0000
sHW_tip5p   O2   1       0.1480   0.0000
sHW_tip5p    P   1       0.1871   0.0000
sHW_tip5p    S   1       0.1782   0.0000
sHW_tip5p   SH   1       0.1782   0.0000
sHW_tip5p   CU   1       0.1700   0.0000
sHW_tip5p   FE   1       0.0000   0.0000
sHW_tip5p    K   1       0.2368   0.0000
sHW_tip5p   Rb   1       0.2633   0.0000
sHW_tip5p   Li   1       0.1013   0.0000
sHW_tip5p   Zn   1       0.0980   0.0000
sHW_tip5p HW_tip4pew   1       0.0000   0.0000
sHW_tip5p OW_tip4pew   1       0.1582   0.0000
sHW_tip5p HW_tip4p   1       0.0000   0.0000
sHW_tip5p OW_tip4p   1       0.1577   0.0000
sHW_tip5p HW_tip5p   1       0.0000   0.0000
sHW_tip5p OW_tip5p   1       0.1560   0.0000
sHW_tip5p HW_tip4pd   1       0.0000   0.0000
sHW_tip5p OW_tip4pd   1       0.1583   0.0000
sHW_tip5p   MW   1       0.0000   0.0000
sHW_tip5p MCH3   1       0.0000   0.0000
sHW_tip5p MNH3   1       0.0000   0.0000
sHW_tip5p   c3   1       0.1700   0.0000
sHW_tip5p   hc   1       0.1325   0.0000
sHW_tip5p    c   1       0.1700   0.0000
sHW_tip5p    o   1       0.1480   0.0000
sHW_tip5p    n   1       0.1625   0.0000
sHW_tip5p   h1   1       0.1236   0.0000
sHW_tip5p   ca   1       0.1700   0.0000
sHW_tip5p   ha   1       0.1300   0.0000
sHW_tip5p   n3   1       0.1625   0.0000
sHW_tip5p   hx   1       0.0980   0.0000
sHW_tip5p   n4   1       0.1625   0.0000
sHW_tip5p   hn   1       0.0535   0.0000
sOW_tip5p   Br   1       0.1560   0.0000
sOW_tip5p    C   1       0.3260   0.3419
sOW_tip5p   C6   1       0.3260   0.3419
sOW_tip5p   C5   1       0.3260   0.3419
sOW_tip5p   CA   1       0.3260   0.3419
sOW_tip5p   CB   1       0.3260   0.3419
sOW_tip5p   CC   1       0.3260   0.3419
sOW_tip5p   CK   1       0.3260   0.3419
sOW_tip5p   CM   1       0.3260   0.3419
sOW_tip5p   CN   1       0.3260   0.3419
sOW_tip5p   CQ   1       0.3260   0.3419
sOW_tip5p   CR   1       0.3260   0.3419
sOW_tip5p   CT   1       0.3260   0.3856
sOW_tip5p   C1   1       0.3260   0.3856
sOW_tip5p   C3   1       0.3260   0.3856
sOW_tip5p   C4   1       0.3260   0.3856
sOW_tip5p   C7   1       0.3260   0.3856
sOW_tip5p   C8   1       0.3260   0.3856
sOW_tip5p   C9   1       0.3260   0.3856
sOW_tip5p   CV   1       0.3260   0.3419
sOW_tip5p   CW   1       0.3260   0.3419
sOW_tip5p   C*   1       0.3260   0.3419
sOW_tip5p   C0   1       0.3086   0.7906
sOW_tip5p    F   1       0.3119   0.2880
sOW_tip5p    H   1       0.2095   0.1461
sOW_tip5p   HB   1       0.2095   0.1461
sOW_tip5p   HC   1       0.2885   0.1461
sOW_tip5p   H1   1       0.2796   0.1461
sOW_tip5p   H2   1       0.2707   0.1461
sOW_tip5p   H3   1       0.2617   0.1461
sOW_tip5p   HA   1       0.2860   0.1428
sOW_tip5p   H4   1       0.2815   0.1428
sOW_tip5p   H5   1       0.2771   0.1428
sOW_tip5p   HO   1       0.1560   0.0000
sOW_tip5p   HS   1       0.2095   0.1461
sOW_tip5p   HW   1       0.1560   0.0000
sOW_tip5p   HP   1       0.2540   0.1461
sOW_tip5p    I   1       0.3654   0.7374
sOW_tip5p   Cl   1       0.3761   0.3687
sOW_tip5p   Na   1       0.3224   0.0614
sOW_tip5p   IB   1       0.6014   0.3687
sOW_tip5p   MG   1       0.2266   1.1028
sOW_tip5p    N   1       0.3185   0.4807
sOW_tip5p   NA   1       0.3185   0.4807
sOW_tip5p   NB   1       0.3185   0.4807
sOW_tip5p   NC   1       0.3185   0.4807
sOW_tip5p   N2   1       0.3185   0.4807
sOW_tip5p   N3   1       0.3185   0.4807
sOW_tip5p   N*   1       0.3185   0.4807
sOW_tip5p    O   1       0.3040   0.5343
sOW_tip5p   OB   1       0.3040   0.5343
sOW_tip5p   OW   1       0.3135   0.4547
sOW_tip5p   OH   1       0.3093   0.5348
sOW_tip5p   O3   1       0.3093   0.5348
sOW_tip5p   OS   1       0.3060   0.4807
sOW_tip5p   O2   1       0.3040   0.5343
sOW_tip5p    P   1       0.3431   0.5214
sOW_tip5p    S   1       0.3342   0.5830
sOW_tip5p   SH   1       0.3342   0.5830
sOW_tip5p   CU   1       0.3260   0.3419
sOW_tip5p   FE   1       0.1560   0.0000
sOW_tip5p    K   1       0.3928   0.0211
sOW_tip5p   Rb   1       0.4193   0.0152
sOW_tip5p   Li   1       0.2573   0.1577
sOW_tip5p   Zn   1       0.2540   0.1304
sOW_tip5p HW_tip4pew   1       0.1560   0.0000
sOW_tip5p OW_tip4pew   1       0.3142   0.4704
sOW_tip5p HW_tip4p   1       0.1560   0.0000
sOW_tip5p OW_tip4p   1       0.3137   0.4590
sOW_tip5p HW_tip5p   1       0.1560   0.0000
sOW_tip5p OW_tip5p   1       0.3120   0.4664
sOW_tip5p HW_tip4pd   1       0.1560   0.0000
sOW_tip5p OW_tip4pd   1       0.3142   0.5697
sOW_tip5p   MW   1       0.1560   0.0000
sOW_tip5p MCH3   1       0.1560   0.0000
sOW_tip5p MNH3   1       0.1560   0.0000
sOW_tip5p   c3   1       0.3260   0.3856
sOW_tip5p   hc   1       0.2885   0.1461
sOW_tip5p    c   1       0.3260   0.3419
sOW_tip5p    o   1       0.3040   0.5343
sOW_tip5p    n   1       0.3185   0.4807
sOW_tip5p   h1   1       0.2796   0.1461
sOW_tip5p   ca   1       0.3260   0.3419
sOW_tip5p   ha   1       0.2860   0.1428
sOW_tip5p   n3   1       0.3185   0.4807
sOW_tip5p   hx   1       0.2540   0.1461
sOW_tip5p   n4   1       0.3185   0.4807
sOW_tip5p   hn   1       0.2095   0.1461
sHW_tip4pd   Br   1       0.0000   0.0000
sHW_tip4pd    C   1       0.1700   0.0000
sHW_tip4pd   C6   1       0.1700   0.0000
sHW_tip4pd   C5   1       0.1700   0.0000
sHW_tip4pd   CA   1       0.1700   0.0000
sHW_tip4pd   CB   1       0.1700   0.0000
sHW_tip4pd   CC   1       0.1700   0.0000
sHW_tip4pd   CK   1       0.1700   0.0000
sHW_tip4pd   CM   1       0.1700   0.0000
sHW_tip4pd   CN   1       0.1700   0.0000
sHW_tip4pd   CQ   1       0.1700   0.0000
sHW_tip4pd   CR   1       0.1700   0.0000
sHW_tip4pd   CT   1       0.1700   0.0000
sHW_tip4pd   C1   1       0.1700   0.0000
sHW_tip4pd   C3   1       0.1700   0.0000
sHW_tip4pd   C4   1       0.1700   0.0000
sHW_tip4pd   C7   1       0.1700   0.0000
sHW_tip4pd   C8   1       0.1700   0.0000
sHW_tip4pd   C9   1       0.1700   0.0000
sHW_tip4pd   CV   1       0.1700   0.0000
sHW_tip4pd   CW   1       0.1700   0.0000
sHW_tip4pd   C*   1       0.1700   0.0000
sHW_tip4pd   C0   1       0.1526   0.0000
sHW_tip4pd    F   1       0.1559   0.0000
sHW_tip4pd    H   1       0.0535   0.0000
sHW_tip4pd   HB   1       0.0535   0.0000
sHW_tip4pd   HC   1       0.1325   0.0000
sHW_tip4pd   H1   1       0.1236   0.0000
sHW_tip4pd   H2   1       0.1147   0.0000
sHW_tip4pd   H3   1       0.1057   0.0000
sHW_tip4pd   HA   1       0.1300   0.0000
sHW_tip4pd   H4   1       0.1255   0.0000
sHW_tip4pd   H5   1       0.1211   0.0000
sHW_tip4pd   HO   1       0.0000   0.0000
sHW_tip4pd   HS   1       0.0535   0.0000
sHW_tip4pd   HW   1       0.0000   0.0000
sHW_tip4pd   HP   1       0.0980   0.0000
sHW_tip4pd    I   1       0.2094   0.0000
sHW_tip4pd   Cl   1       0.2201   0.0000
sHW_tip4pd   Na   1       0.1664   0.0000
sHW_tip4pd   IB   1       0.4454   0.0000
sHW_tip4pd   MG   1       0.0706   0.0000
sHW_tip4pd    N   1       0.1625   0.0000
sHW_tip4pd   NA   1       0.1625   0.0000
sHW_tip4pd   NB   1       0.1625   0.0000
sHW_tip4pd   NC   1       0.1625   0.0000
sHW_tip4pd   N2   1       0.1625   0.0000
sHW_tip4pd   N3   1       0.1625   0.0000
sHW_tip4pd   N*   1       0.1625   0.0000
sHW_tip4pd    O   1       0.1480   0.0000
sHW_tip4pd   OB   1       0.1480   0.0000
sHW_tip4pd   OW   1       0.1575   0.0000
sHW_tip4pd   OH   1       0.1533   0.0000
sHW_tip4pd   O3   1       0.1533   0.0000
sHW_tip4pd   OS   1       0.1500   0.0000
sHW_tip4pd   O2   1       0.1480   0.0000
sHW_tip4pd    P   1       0.1871   0.0000
sHW_tip4pd    S   1       0.1782   0.0000
sHW_tip4pd   SH   1       0.1782   0.0000
sHW_tip4pd   CU   1       0.1700   0.0000
sHW_tip4pd   FE   1       0.0000   0.0000
sHW_tip4pd    K   1       0.2368   0.0000
sHW_tip4pd   Rb   1       0.2633   0.0000
sHW_tip4pd   Li   1       0.1013   0.0000
sHW_tip4pd   Zn   1       0.0980   0.0000
sHW_tip4pd HW_tip4pew   1       0.0000   0.0000
sHW_tip4pd OW_tip4pew   1       0.1582   0.0000
sHW_tip4pd HW_tip4p   1       0.0000   0.0000
sHW_tip4pd OW_tip4p   1       0.1577   0.0000
sHW_tip4pd HW_tip5p   1       0.0000   0.0000
sHW_tip4pd OW_tip5p   1       0.1560   0.0000
sHW_tip4pd HW_tip4pd   1       0.0000   0.0000
sHW_tip4pd OW_tip4pd   1       0.1583   0.0000
sHW_tip4pd   MW   1       0.0000   0.0000
sHW_tip4pd MCH3   1       0.0000   0.0000
sHW_tip4pd MNH3   1       0.0000   0.0000
sHW_tip4pd   c3   1       0.1700   0.0000
sHW_tip4pd   hc   1       0.1325   0.0000
sHW_tip4pd    c   1       0.1700   0.0000
sHW_tip4pd    o   1       0.1480   0.0000
sHW_tip4pd    n   1       0.1625   0.0000
sHW_tip4pd   h1   1       0.1236   0.0000
sHW_tip4pd   ca   1       0.1700   0.0000
sHW_tip4pd   ha   1       0.1300   0.0000
sHW_tip4pd   n3   1       0.1625   0.0000
sHW_tip4pd   hx   1       0.0980   0.0000
sHW_tip4pd   n4   1       0.1625   0.0000
sHW_tip4pd   hn   1       0.0535   0.0000
sOW_tip4pd   Br   1       0.1583   0.0000
sOW_tip4pd    C   1       0.3282   0.4177
sOW_tip4pd   C6   1       0.3282   0.4177
sOW_tip4pd   C5   1       0.3282   0.4177
sOW_tip4pd   CA   1       0.3282   0.4177
sOW_tip4pd   CB   1       0.3282   0.4177
sOW_tip4pd   CC   1       0.3282   0.4177
sOW_tip4pd   CK   1       0.3282   0.4177
sOW_tip4pd   CM   1       0.3282   0.4177
sOW_tip4pd   CN   1       0.3282   0.4177
sOW_tip4pd   CQ   1       0.3282   0.4177
sOW_tip4pd   CR   1       0.3282   0.4177
sOW_tip4pd   CT   1       0.3282   0.4711
sOW_tip4pd   C1   1       0.3282   0.4711
sOW_tip4pd   C3   1       0.3282   0.4711
sOW_tip4pd   C4   1       0.3282   0.4711
sOW_tip4pd   C7   1       0.3282   0.4711
sOW_tip4pd   C8   1       0.3282   0.4711
sOW_tip4pd   C9   1       0.3282   0.4711
sOW_tip4pd   CV   1       0.3282   0.4177
sOW_tip4pd   CW   1       0.3282   0.4177
sOW_tip4pd   C*   1       0.3282   0.4177
sOW_tip4pd   C0   1       0.3109   0.9658
sOW_tip4pd    F   1       0.3142   0.3518
sOW_tip4pd    H   1       0.2117   0.1785
sOW_tip4pd   HB   1       0.2117   0.1785
sOW_tip4pd   HC   1       0.2907   0.1785
sOW_tip4pd   H1   1       0.2818   0.1785
sOW_tip4pd   H2   1       0.2729   0.1785
sOW_tip4pd   H3   1       0.2640   0.1785
sOW_tip4pd   HA   1       0.2882   0.1744
sOW_tip4pd   H4   1       0.2838   0.1744
sOW_tip4pd   H5   1       0.2793   0.1744
sOW_tip4pd   HO   1       0.1583   0.0000
sOW_tip4pd   HS   1       0.2117   0.1785
sOW_tip4pd   HW   1       0.1583   0.0000
sOW_tip4pd   HP   1       0.2562   0.1785
sOW_tip4pd    I   1       0.3676   0.9008
sOW_tip4pd   Cl   1       0.3783   0.4504
sOW_tip4pd   Na   1       0.3247   0.0750
sOW_tip4pd   IB   1       0.6037   0.4504
sOW_tip4pd   MG   1       0.2289   1.3472
sOW_tip4pd    N   1       0.3207   0.5873
sOW_tip4pd   NA   1       0.3207   0.5873
sOW_tip4pd   NB   1       0.3207   0.5873
sOW_tip4pd   NC   1       0.3207   0.5873
sOW_tip4pd   N2   1       0.3207   0.5873
sOW_tip4pd   N3   1       0.3207   0.5873
sOW_tip4pd   N*   1       0.3207   0.5873
sOW_tip4pd    O   1       0.3062   0.6527
sOW_tip4pd   OB   1       0.3062   0.6527
sOW_tip4pd   OW   1       0.3158   0.5555
sOW_tip4pd   OH   1       0.3116   0.6533
sOW_tip4pd   O3   1       0.3116   0.6533
sOW_tip4pd   OS   1       0.3083   0.5873
sOW_tip4pd   O2   1       0.3062   0.6527
sOW_tip4pd    P   1       0.3453   0.6370
sOW_tip4pd    S   1       0.3364   0.7121
sOW_tip4pd   SH   1       0.3364   0.7121
sOW_tip4pd   CU   1       0.3282   0.4177
sOW_tip4pd   FE   1       0.1583   0.0000
sOW_tip4pd    K   1       0.3951   0.0258
sOW_tip4pd   Rb   1       0.4216   0.0186
sOW_tip4pd   Li   1       0.2595   0.1927
sOW_tip4pd   Zn   1       0.2562   0.1592
sOW_tip4pd HW_tip4pew   1       0.1583   0.0000
sOW_tip4pd OW_tip4pew   1       0.3165   0.5746
sOW_tip4pd HW_tip4p   1       0.1583   0.0000
sOW_tip4pd OW_tip4p   1       0.3159   0.5607
sOW_tip4pd HW_tip5p   1       0.1583   0.0000
sOW_tip4pd OW_tip5p   1       0.3142   0.5697
sOW_tip4pd HW_tip4pd   1       0.1583   0.0000
sOW_tip4pd OW_tip4pd   1       0.3165   0.6960
sOW_tip4pd   MW   1       0.1583   0.0000
sOW_tip4pd MCH3   1       0.1583   0.0000
sOW_tip4pd MNH3   1       0.1583   0.0000
sOW_tip4pd   c3   1       0.3282   0.4711
sOW_tip4pd   hc   1       0.2907   0.1785
sOW_tip4pd    c   1       0.3282   0.4177
sOW_tip4pd    o   1       0.3062   0.6527
sOW_tip4pd    n   1       0.3207   0.5873
sOW_tip4pd   h1   1       0.2818   0.1785
sOW_tip4pd   ca   1       0.3282   0.4177
sOW_tip4pd   ha   1       0.2882   0.1744
sOW_tip4pd   n3   1       0.3207   0.5873
sOW_tip4pd   hx   1       0.2562   0.1785
sOW_tip4pd   n4   1       0.3207   0.5873
sOW_tip4pd   hn   1       0.2117   0.1785
  sMW   Br   1       0.0000   0.0000
  sMW    C   1       0.1700   0.0000
  sMW   C6   1       0.1700   0.0000
  sMW   C5   1       0.1700   0.0000
  sMW   CA   1       0.1700   0.0000
  sMW   CB   1       0.1700   0.0000
  sMW   CC   1       0.1700   0.0000
  sMW   CK   1       0.1700   0.0000
  sMW   CM   1       0.1700   0.0000
  sMW   CN   1       0.1700   0.0000
  sMW   CQ   1       0.1700   0.0000
  sMW   CR   1       0.1700   0.0000
  sMW   CT   1       0.1700   0.0000
  sMW   C1   1       0.1700   0.0000
  sMW   C3   1       0.1700   0.0000
  sMW   C4   1       0.1700   0.0000
  sMW   C7   1       0.1700   0.0000
  sMW   C8   1       0.1700   0.0000
  sMW   C9   1       0.1700   0.0000
  sMW   CV   1       0.1700   0.0000
  sMW   CW   1       0.1700   0.0000
  sMW   C*   1       0.1700   0.0000
  sMW   C0   1       0.1526   0.0000
  sMW    F   1       0.1559   0.0000
  sMW    H   1       0.0535   0.0000
  sMW   HB   1       0.0535   0.0000
  sMW   HC   1       0.1325   0.0000
  sMW   H1   1       0.1236   0.0000
  sMW   H2   1       0.1147   0.0000
  sMW   H3   1       0.1057   0.0000
  sMW   HA   1       0.1300   0.0000
  sMW   H4   1       0.1255   0.0000
  sMW   H5   1       0.1211   0.0000
  sMW   HO   1       0.0000   0.0000
  sMW   HS   1       0.0535   0.0000
  sMW   HW   1       0.0000   0.0000
  sMW   HP   1       0.0980   0.0000
  sMW    I   1       0.2094   0.0000
  sMW   Cl   1       0.2201   0.0000
  sMW   Na   1       0.1664   0.0000
  sMW   IB   1       0.4454   0.0000
  sMW   MG   1       0.0706   0.0000
  sMW    N   1       0.1625   0.0000
  sMW   NA   1       0.1625   0.0000
  sMW   NB   1       0.1625   0.0000
  sMW   NC   1       0.1625   0.0000
  sMW   N2   1       0.1625   0.0000
  sMW   N3   1       0.1625   0.0000
  sMW   N*   1       0.1625   0.0000
  sMW    O   1       0.1480   0.0000
  sMW   OB   1       0.1480   0.0000
  sMW   OW   1       0.1575   0.0000
  sMW   OH   1       0.1533   0.0000
  sMW   O3   1       0.1533   0.0000
  sMW   OS   1       0.1500   0.0000
  sMW   O2   1       0.1480   0.0000
  sMW    P   1       0.1871   0.0000
  sMW    S   1       0.1782   0.0000
  sMW   SH   1       0.1782   0.0000
  sMW   CU   1       0.1700   0.0000
  sMW   FE   1       0.0000   0.0000
  sMW    K   1       0.2368   0.0000
  sMW   Rb   1       0.2633   0.0000
  sMW   Li   1       0.1013   0.0000
  sMW   Zn   1       0.0980   0.0000
  sMW HW_tip4pew   1       0.0000   0.0000
  sMW OW_tip4pew   1       0.1582   0.0000
  sMW HW_tip4p   1       0.0000   0.0000
  sMW OW_tip4p   1       0.1577   0.0000
  sMW HW_tip5p   1       0.0000   0.0000
  sMW OW_tip5p   1       0.1560   0.0000
  sMW HW_tip4pd   1       0.0000   0.0000
  sMW OW_tip4pd   1       0.1583   0.0000
  sMW   MW   1       0.0000   0.0000
  sMW MCH3   1       0.0000   0.0000
  sMW MNH3   1       0.0000   0.0000
  sMW   c3   1       0.1700   0.0000
  sMW   hc   1       0.1325   0.0000
  sMW    c   1       0.1700   0.0000
  sMW    o   1       0.1480   0.0000
  sMW    n   1       0.1625   0.0000
  sMW   h1   1       0.1236   0.0000
  sMW   ca   1       0.1700   0.0000
  sMW   ha   1       0.1300   0.0000
  sMW   n3   1       0.1625   0.0000
  sMW   hx   1       0.0980   0.0000
  sMW   n4   1       0.1625   0.0000
  sMW   hn   1       0.0535   0.0000
sMCH3   Br   1       0.0000   0.0000
sMCH3    C   1       0.1700   0.0000
sMCH3   C6   1       0.1700   0.0000
sMCH3   C5   1       0.1700   0.0000
sMCH3   CA   1       0.1700   0.0000
sMCH3   CB   1       0.1700   0.0000
sMCH3   CC   1       0.1700   0.0000
sMCH3   CK   1       0.1700   0.0000
sMCH3   CM   1       0.1700   0.0000
sMCH3   CN   1       0.1700   0.0000
sMCH3   CQ   1       0.1700   0.0000
sMCH3   CR   1       0.1700   0.0000
sMCH3   CT   1       0.1700   0.0000
sMCH3   C1   1       0.1700   0.0000
sMCH3   C3   1       0.1700   0.0000
sMCH3   C4   1       0.1700   0.0000
sMCH3   C7   1       0.1700   0.0000
sMCH3   C8   1       0.1700   0.0000
sMCH3   C9   1       0.1700   0.0000
sMCH3   CV   1       0.1700   0.0000
sMCH3   CW   1       0.1700   0.0000
sMCH3   C*   1       0.1700   0.0000
sMCH3   C0   1       0.1526   0.0000
sMCH3    F   1       0.1559   0.0000
sMCH3    H   1       0.0535   0.0000
sMCH3   HB   1       0.0535   0.0000
sMCH3   HC   1       0.1325   0.0000
sMCH3   H1   1       0.1236   0.0000
sMCH3   H2   1       0.1147   0.0000
sMCH3   H3   1       0.1057   0.0000
sMCH3   HA   1       0.1300   0.0000
sMCH3   H4   1       0.1255   0.0000
sMCH3   H5   1       0.1211   0.0000
sMCH3   HO   1       0.0000   0.0000
sMCH3   HS   1       0.0535   0.0000
sMCH3   HW   1       0.0000   0.0000
sMCH3   HP   1       0.0980   0.0000
sMCH3    I   1       0.2094   0.0000
sMCH3   Cl   1       0.2201   0.0000
sMCH3   Na   1       0.1664   0.0000
sMCH3   IB   1       0.4454   0.0000
sMCH3   MG   1       0.0706   0.0000
sMCH3    N   1       0.1625   0.0000
sMCH3   NA   1       0.1625   0.0000
sMCH3   NB   1       0.1625   0.0000
sMCH3   NC   1       0.1625   0.0000
sMCH3   N2   1       0.1625   0.0000
sMCH3   N3   1       0.1625   0.0000
sMCH3   N*   1       0.1625   0.0000
sMCH3    O   1       0.1480   0.0000
sMCH3   OB   1       0.1480   0.0000
sMCH3   OW   1       0.1575   0.0000
sMCH3   OH   1       0.1533   0.0000
sMCH3   O3   1       0.1533   0.0000
sMCH3   OS   1       0.1500   0.0000
sMCH3   O2   1       0.1480   0.0000
sMCH3    P   1       0.1871   0.0000
sMCH3    S   1       0.1782   0.0000
sMCH3   SH   1       0.1782   0.0000
sMCH3   CU   1       0.1700   0.0000
sMCH3   FE   1       0.0000   0.0000
sMCH3    K   1       0.2368   0.0000
sMCH3   Rb   1       0.2633   0.0000
sMCH3   Li   1       0.1013   0.0000
sMCH3   Zn   1       0.0980   0.0000
sMCH3 HW_tip4pew   1       0.0000   0.0000
sMCH3 OW_tip4pew   1       0.1582   0.0000
sMCH3 HW_tip4p   1       0.0000   0.0000
sMCH3 OW_tip4p   1       0.1577   0.0000
sMCH3 HW_tip5p   1       0.0000   0.0000
sMCH3 OW_tip5p   1       0.1560   0.0000
sMCH3 HW_tip4pd   1       0.0000   0.0000
sMCH3 OW_tip4pd   1       0.1583   0.0000
sMCH3   MW   1       0.0000   0.0000
sMCH3 MCH3   1       0.0000   0.0000
sMCH3 MNH3   1       0.0000   0.0000
sMCH3   c3   1       0.1700   0.0000
sMCH3   hc   1       0.1325   0.0000
sMCH3    c   1       0.1700   0.0000
sMCH3    o   1       0.1480   0.0000
sMCH3    n   1       0.1625   0.0000
sMCH3   h1   1       0.1236   0.0000
sMCH3   ca   1       0.1700   0.0000
sMCH3   ha   1       0.1300   0.0000
sMCH3   n3   1       0.1625   0.0000
sMCH3   hx   1       0.0980   0.0000
sMCH3   n4   1       0.1625   0.0000
sMCH3   hn   1       0.0535   0.0000
sMNH3   Br   1       0.0000   0.0000
sMNH3    C   1       0.1700   0.0000
sMNH3   C6   1       0.1700   0.0000
sMNH3   C5   1       0.1700   0.0000
sMNH3   CA   1       0.1700   0.0000
sMNH3   CB   1       0.1700   0.0000
sMNH3   CC   1       0.1700   0.0000
sMNH3   CK   1       0.1700   0.0000
sMNH3   CM   1       0.1700   0.0000
sMNH3   CN   1       0.1700   0.0000
sMNH3   CQ   1       0.1700   0.0000
sMNH3   CR   1       0.1700   0.0000
sMNH3   CT   1       0.1700   0.0000
sMNH3   C1   1       0.1700   0.0000
sMNH3   C3   1       0.1700   0.0000
sMNH3   C4   1       0.1700   0.0000
sMNH3   C7   1       0.1700   0.0000
sMNH3   C8   1       0.1700   0.0000
sMNH3   C9   1       0.1700   0.0000
sMNH3   CV   1       0.1700   0.0000
sMNH3   CW   1       0.1700   0.0000
sMNH3   C*   1       0.1700   0.0000
sMNH3   C0   1       0.1526   0.0000
sMNH3    F   1       0.1559   0.0000
sMNH3    H   1       0.0535   0.0000
sMNH3   HB   1       0.0535   0.0000
sMNH3   HC   1       0.1325   0.0000
sMNH3   H1   1       0.1236   0.0000
sMNH3   H2   1       0.1147   0.0000
sMNH3   H3   1       0.1057   0.0000
sMNH3   HA   1       0.1300   0.0000
sMNH3   H4   1       0.1255   0.0000
sMNH3   H5   1       0.1211   0.0000
sMNH3   HO   1       0.0000   0.0000
sMNH3   HS   1       0.0535   0.0000
sMNH3   HW   1       0.0000   0.0000
sMNH3   HP   1       0.0980   0.0000
sMNH3    I   1       0.2094   0.0000
sMNH3   Cl   1       0.2201   0.0000
sMNH3   Na   1       0.1664   0.0000
sMNH3   IB   1       0.4454   0.0000
sMNH3   MG   1       0.0706   0.0000
sMNH3    N   1       0.1625   0.0000
sMNH3   NA   1       0.1625   0.0000
sMNH3   NB   1       0.1625   0.0000
sMNH3   NC   1       0.1625   0.0000
sMNH3   N2   1       0.1625   0.0000
sMNH3   N3   1       0.1625   0.0000
sMNH3   N*   1       0.1625   0.0000
sMNH3    O   1       0.1480   0.0000
sMNH3   OB   1       0.1480   0.0000
sMNH3   OW   1       0.1575   0.0000
sMNH3   OH   1       0.1533   0.0000
sMNH3   O3   1       0.1533   0.0000
sMNH3   OS   1       0.1500   0.0000
sMNH3   O2   1       0.1480   0.0000
sMNH3    P   1       0.1871   0.0000
sMNH3    S   1       0.1782   0.0000
sMNH3   SH   1       0.1782   0.0000
sMNH3   CU   1       0.1700   0.0000
sMNH3   FE   1       0.0000   0.0000
sMNH3    K   1       0.2368   0.0000
sMNH3   Rb   1       0.2633   0.0000
sMNH3   Li   1       0.1013   0.0000
sMNH3   Zn   1       0.0980   0.0000
sMNH3 HW_tip4pew   1       0.0000   0.0000
sMNH3 OW_tip4pew   1       0.1582   0.0000
sMNH3 HW_tip4p   1       0.0000   0.0000
sMNH3 OW_tip4p   1       0.1577   0.0000
sMNH3 HW_tip5p   1       0.0000   0.0000
sMNH3 OW_tip5p   1       0.1560   0.0000
sMNH3 HW_tip4pd   1       0.0000   0.0000
sMNH3 OW_tip4pd   1       0.1583   0.0000
sMNH3   MW   1       0.0000   0.0000
sMNH3 MCH3   1       0.0000   0.0000
sMNH3 MNH3   1       0.0000   0.0000
sMNH3   c3   1       0.1700   0.0000
sMNH3   hc   1       0.1325   0.0000
sMNH3    c   1       0.1700   0.0000
sMNH3    o   1       0.1480   0.0000
sMNH3    n   1       0.1625   0.0000
sMNH3   h1   1       0.1236   0.0000
sMNH3   ca   1       0.1700   0.0000
sMNH3   ha   1       0.1300   0.0000
sMNH3   n3   1       0.1625   0.0000
sMNH3   hx   1       0.0980   0.0000
sMNH3   n4   1       0.1625   0.0000
sMNH3   hn   1       0.0535   0.0000
  sc3   Br   1       0.1700   0.0000
  sc3    C   1       0.3400   0.1382
  sc3   C6   1       0.3400   0.1382
  sc3   C5   1       0.3400   0.1382
  sc3   CA   1       0.3400   0.1382
  sc3   CB   1       0.3400   0.1382
  sc3   CC   1       0.3400   0.1382
  sc3   CK   1       0.3400   0.1382
  sc3   CM   1       0.3400   0.1382
  sc3   CN   1       0.3400   0.1382
  sc3   CQ   1       0.3400   0.1382
  sc3   CR   1       0.3400   0.1382
  sc3   CT   1       0.3400   0.1559
  sc3   C1   1       0.3400   0.1559
  sc3   C3   1       0.3400   0.1559
  sc3   C4   1       0.3400   0.1559
  sc3   C7   1       0.3400   0.1559
  sc3   C8   1       0.3400   0.1559
  sc3   C9   1       0.3400   0.1559
  sc3   CV   1       0.3400   0.1382
  sc3   CW   1       0.3400   0.1382
  sc3   C*   1       0.3400   0.1382
  sc3   C0   1       0.3226   0.3196
  sc3    F   1       0.3259   0.1164
  sc3    H   1       0.2234   0.0591
  sc3   HB   1       0.2234   0.0591
  sc3   HC   1       0.3025   0.0591
  sc3   H1   1       0.2936   0.0591
  sc3   H2   1       0.2846   0.0591
  sc3   H3   1       0.2757   0.0591
  sc3   HA   1       0.3000   0.0577
  sc3   H4   1       0.2955   0.0577
  sc3   H5   1       0.2911   0.0577
  sc3   HO   1       0.1700   0.0000
  sc3   HS   1       0.2234   0.0591
  sc3   HW   1       0.1700   0.0000
  sc3   HP   1       0.2680   0.0591
  sc3    I   1       0.3793   0.2981
  sc3   Cl   1       0.3900   0.1490
  sc3   Na   1       0.3364   0.0248
  sc3   IB   1       0.6154   0.1490
  sc3   MG   1       0.2406   0.4458
  sc3    N   1       0.3325   0.1943
  sc3   NA   1       0.3325   0.1943
  sc3   NB   1       0.3325   0.1943
  sc3   NC   1       0.3325   0.1943
  sc3   N2   1       0.3325   0.1943
  sc3   N3   1       0.3325   0.1943
  sc3   N*   1       0.3325   0.1943
  sc3    O   1       0.3180   0.2160
  sc3   OB   1       0.3180   0.2160
  sc3   OW   1       0.3275   0.1838
  sc3   OH   1       0.3233   0.2162
  sc3   O3   1       0.3233   0.2162
  sc3   OS   1       0.3200   0.1943
  sc3   O2   1       0.3180   0.2160
  sc3    P   1       0.3571   0.2108
  sc3    S   1       0.3482   0.2357
  sc3   SH   1       0.3482   0.2357
  sc3   CU   1       0.3400   0.1382
  sc3   FE   1       0.1700   0.0000
  sc3    K   1       0.4068   0.0085
  sc3   Rb   1       0.4333   0.0061
  sc3   Li   1       0.2713   0.0638
  sc3   Zn   1       0.2680   0.0527
  sc3 HW_tip4pew   1       0.1700   0.0000
  sc3 OW_tip4pew   1       0.3282   0.1901
  sc3 HW_tip4p   1       0.1700   0.0000
  sc3 OW_tip4p   1       0.3277   0.1856
  sc3 HW_tip5p   1       0.1700   0.0000
  sc3 OW_tip5p   1       0.3260   0.1885
  sc3 HW_tip4pd   1       0.1700   0.0000
  sc3 OW_tip4pd   1       0.3282   0.2303
  sc3   MW   1       0.1700   0.0000
  sc3 MCH3   1       0.1700   0.0000
  sc3 MNH3   1       0.1700   0.0000
  sc3   c3   1       0.3400   0.1559
  sc3   hc   1       0.3025   0.0591
  sc3    c   1       0.3400   0.1382
  sc3    o   1       0.3180   0.2160
  sc3    n   1       0.3325   0.1943
  sc3   h1   1       0.2936   0.0591
  sc3   ca   1       0.3400   0.1382
  sc3   ha   1       0.3000   0.0577
  sc3   n3   1       0.3325   0.1943
  sc3   hx   1       0.2680   0.0591
  sc3   n4   1       0.3325   0.1943
  sc3   hn   1       0.2234   0.0591
  shc   Br   1       0.1325   0.0000
  shc    C   1       0.3025   0.0524
  shc   C6   1       0.3025   0.0524
  shc   C5   1       0.3025   0.0524
  shc   CA   1       0.3025   0.0524
  shc   CB   1       0.3025   0.0524
  shc   CC   1       0.3025   0.0524
  shc   CK   1       0.3025   0.0524
  shc   CM   1       0.3025   0.0524
  shc   CN   1       0.3025   0.0524
  shc   CQ   1       0.3025   0.0524
  shc   CR   1       0.3025   0.0524
  shc   CT   1       0.3025   0.0591
  shc   C1   1       0.3025   0.0591
  shc   C3   1       0.3025   0.0591
  shc   C4   1       0.3025   0.0591
  shc   C7   1       0.3025   0.0591
  shc   C8   1       0.3025   0.0591
  shc   C9   1       0.3025   0.0591
  shc   CV   1       0.3025   0.0524
  shc   CW   1       0.3025   0.0524
  shc   C*   1       0.3025   0.0524
  shc   C0   1       0.2851   0.1211
  shc    F   1       0.2884   0.0441
  shc    H   1       0.1859   0.0224
  shc   HB   1       0.1859   0.0224
  shc   HC   1       0.2650   0.0224
  shc   H1   1       0.2560   0.0224
  shc   H2   1       0.2471   0.0224
  shc   H3   1       0.2382   0.0224
  shc   HA   1       0.2625   0.0219
  shc   H4   1       0.2580   0.0219
  shc   H5   1       0.2535   0.0219
  shc   HO   1       0.1325   0.0000
  shc   HS   1       0.1859   0.0224
  shc   HW   1       0.1325   0.0000
  shc   HP   1       0.2305   0.0224
  shc    I   1       0.3418   0.1129
  shc   Cl   1       0.3525   0.0565
  shc   Na   1       0.2989   0.0094
  shc   IB   1       0.5779   0.0565
  shc   MG   1       0.2031   0.1689
  shc    N   1       0.2950   0.0736
  shc   NA   1       0.2950   0.0736
  shc   NB   1       0.2950   0.0736
  shc   NC   1       0.2950   0.0736
  shc   N2   1       0.2950   0.0736
  shc   N3   1       0.2950   0.0736
  shc   N*   1       0.2950   0.0736
  shc    O   1       0.2805   0.0818
  shc   OB   1       0.2805   0.0818
  shc   OW   1       0.2900   0.0696
  shc   OH   1       0.2858   0.0819
  shc   O3   1       0.2858   0.0819
  shc   OS   1       0.2825   0.0736
  shc   O2   1       0.2805   0.0818
  shc    P   1       0.3196   0.0799
  shc    S   1       0.3107   0.0893
  shc   SH   1       0.3107   0.0893
  shc   CU   1       0.3025   0.0524
  shc   FE   1       0.1325   0.0000
  shc    K   1       0.3693   0.0032
  shc   Rb   1       0.3958   0.0023
  shc   Li   1       0.2338   0.0242
  shc   Zn   1       0.2305   0.0200
  shc HW_tip4pew   1       0.1325   0.0000
  shc OW_tip4pew   1       0.2907   0.0720
  shc HW_tip4p   1       0.1325   0.0000
  shc OW_tip4p   1       0.2902   0.0703
  shc HW_tip5p   1       0.1325   0.0000
  shc OW_tip5p   1       0.2885   0.0714
  shc HW_tip4pd   1       0.1325   0.0000
  shc OW_tip4pd   1       0.2907   0.0872
  shc   MW   1       0.1325   0.0000
  shc MCH3   1       0.1325   0.0000
  shc MNH3   1       0.1325   0.0000
  shc   c3   1       0.3025   0.0591
  shc   hc   1       0.2650   0.0224
  shc    c   1       0.3025   0.0524
  shc    o   1       0.2805   0.0818
  shc    n   1       0.2950   0.0736
  shc   h1   1       0.2560   0.0224
  shc   ca   1       0.3025   0.0524
  shc   ha   1       0.2625   0.0219
  shc   n3   1       0.2950   0.0736
  shc   hx   1       0.2305   0.0224
  shc   n4   1       0.2950   0.0736
  shc   hn   1       0.1859   0.0224
   sc   Br   1       0.1700   0.0000
   sc    C   1       0.3400   0.1226
   sc   C6   1       0.3400   0.1226
   sc   C5   1       0.3400   0.1226
   sc   CA   1       0.3400   0.1226
   sc   CB   1       0.3400   0.1226
   sc   CC   1       0.3400   0.1226
   sc   CK   1       0.3400   0.1226
   sc   CM   1       0.3400   0.1226
   sc   CN   1       0.3400   0.1226
   sc   CQ   1       0.3400   0.1226
   sc   CR   1       0.3400   0.1226
   sc   CT   1       0.3400   0.1382
   sc   C1   1       0.3400   0.1382
   sc   C3   1       0.3400   0.1382
   sc   C4   1       0.3400   0.1382
   sc   C7   1       0.3400   0.1382
   sc   C8   1       0.3400   0.1382
   sc   C9   1       0.3400   0.1382
   sc   CV   1       0.3400   0.1226
   sc   CW   1       0.3400   0.1226
   sc   C*   1       0.3400   0.1226
   sc   C0   1       0.3226   0.2834
   sc    F   1       0.3259   0.1032
   sc    H   1       0.2234   0.0524
   sc   HB   1       0.2234   0.0524
   sc   HC   1       0.3025   0.0524
   sc   H1   1       0.2936   0.0524
   sc   H2   1       0.2846   0.0524
   sc   H3   1       0.2757   0.0524
   sc   HA   1       0.3000   0.0512
   sc   H4   1       0.2955   0.0512
   sc   H5   1       0.2911   0.0512
   sc   HO   1       0.1700   0.0000
   sc   HS   1       0.2234   0.0524
   sc   HW   1       0.1700   0.0000
   sc   HP   1       0.2680   0.0524
   sc    I   1       0.3793   0.2643
   sc   Cl   1       0.3900   0.1322
   sc   Na   1       0.3364   0.0220
   sc   IB   1       0.6154   0.1322
   sc   MG   1       0.2406   0.3953
   sc    N   1       0.3325   0.1723
   sc   NA   1       0.3325   0.1723
   sc   NB   1       0.3325   0.1723
   sc   NC   1       0.3325   0.1723
   sc   N2   1       0.3325   0.1723
   sc   N3   1       0.3325   0.1723
   sc   N*   1       0.3325   0.1723
   sc    O   1       0.3180   0.1915
   sc   OB   1       0.3180   0.1915
   sc   OW   1       0.3275   0.1630
   sc   OH   1       0.3233   0.1917
   sc   O3   1       0.3233   0.1917
   sc   OS   1       0.3200   0.1723
   sc   O2   1       0.3180   0.1915
   sc    P   1       0.3571   0.1869
   sc    S   1       0.3482   0.2089
   sc   SH   1       0.3482   0.2089
   sc   CU   1       0.3400   0.1226
   sc   FE   1       0.1700   0.0000
   sc    K   1       0.4068   0.0076
   sc   Rb   1       0.4333   0.0054
   sc   Li   1       0.2713   0.0565
   sc   Zn   1       0.2680   0.0467
   sc HW_tip4pew   1       0.1700   0.0000
   sc OW_tip4pew   1       0.3282   0.1686
   sc HW_tip4p   1       0.1700   0.0000
   sc OW_tip4p   1       0.3277   0.1645
   sc HW_tip5p   1       0.1700   0.0000
   sc OW_tip5p   1       0.3260   0.1672
   sc HW_tip4pd   1       0.1700   0.0000
   sc OW_tip4pd   1       0.3282   0.2042
   sc   MW   1       0.1700   0.0000
   sc MCH3   1       0.1700   0.0000
   sc MNH3   1       0.1700   0.0000
   sc   c3   1       0.3400   0.1382
   sc   hc   1       0.3025   0.0524
   sc    c   1       0.3400   0.1226
   sc    o   1       0.3180   0.1915
   sc    n   1       0.3325   0.1723
   sc   h1   1       0.2936   0.0524
   sc   ca   1       0.3400   0.1226
   sc   ha   1       0.3000   0.0512
   sc   n3   1       0.3325   0.1723
   sc   hx   1       0.2680   0.0524
   sc   n4   1       0.3325   0.1723
   sc   hn   1       0.2234   0.0524
   so   Br   1       0.1480   0.0000
   so    C   1       0.3180   0.1915
   so   C6   1       0.3180   0.1915
   so   C5   1       0.3180   0.1915
   so   CA   1       0.3180   0.1915
   so   CB   1       0.3180   0.1915
   so   CC   1       0.3180   0.1915
   so   CK   1       0.3180   0.1915
   so   CM   1       0.3180   0.1915
   so   CN   1       0.3180   0.1915
   so   CQ   1       0.3180   0.1915
   so   CR   1       0.3180   0.1915
   so   CT   1       0.3180   0.2160
   so   C1   1       0.3180   0.2160
   so   C3   1       0.3180   0.2160
   so   C4   1       0.3180   0.2160
   so   C7   1       0.3180   0.2160
   so   C8   1       0.3180   0.2160
   so   C9   1       0.3180   0.2160
   so   CV   1       0.3180   0.1915
   so   CW   1       0.3180   0.1915
   so   C*   1       0.3180   0.1915
   so   C0   1       0.3006   0.4428
   so    F   1       0.3039   0.1613
   so    H   1       0.2014   0.0818
   so   HB   1       0.2014   0.0818
   so   HC   1       0.2805   0.0818
   so   H1   1       0.2716   0.0818
   so   H2   1       0.2627   0.0818
   so   H3   1       0.2537   0.0818
   so   HA   1       0.2780   0.0800
   so   H4   1       0.2735   0.0800
   so   H5   1       0.2691   0.0800
   so   HO   1       0.1480   0.0000
   so   HS   1       0.2014   0.0818
   so   HW   1       0.1480   0.0000
   so   HP   1       0.2460   0.0818
   so    I   1       0.3574   0.4130
   so   Cl   1       0.3680   0.2065
   so   Na   1       0.3144   0.0344
   so   IB   1       0.5934   0.2065
   so   MG   1       0.2186   0.6177
   so    N   1       0.3105   0.2692
   so   NA   1       0.3105   0.2692
   so   NB   1       0.3105   0.2692
   so   NC   1       0.3105   0.2692
   so   N2   1       0.3105   0.2692
   so   N3   1       0.3105   0.2692
   so   N*   1       0.3105   0.2692
   so    O   1       0.2960   0.2993
   so   OB   1       0.2960   0.2993
   so   OW   1       0.3055   0.2547
   so   OH   1       0.3013   0.2995
   so   O3   1       0.3013   0.2995
   so   OS   1       0.2980   0.2692
   so   O2   1       0.2960   0.2993
   so    P   1       0.3351   0.2920
   so    S   1       0.3262   0.3265
   so   SH   1       0.3262   0.3265
   so   CU   1       0.3180   0.1915
   so   FE   1       0.1480   0.0000
   so    K   1       0.3848   0.0118
   so   Rb   1       0.4113   0.0085
   so   Li   1       0.2493   0.0883
   so   Zn   1       0.2460   0.0730
   so HW_tip4pew   1       0.1480   0.0000
   so OW_tip4pew   1       0.3062   0.2634
   so HW_tip4p   1       0.1480   0.0000
   so OW_tip4p   1       0.3057   0.2571
   so HW_tip5p   1       0.1480   0.0000
   so OW_tip5p   1       0.3040   0.2612
   so HW_tip4pd   1       0.1480   0.0000
   so OW_tip4pd   1       0.3062   0.3191
   so   MW   1       0.1480   0.0000
   so MCH3   1       0.1480   0.0000
   so MNH3   1       0.1480   0.0000
   so   c3   1       0.3180   0.2160
   so   hc   1       0.2805   0.0818
   so    c   1       0.3180   0.1915
   so    o   1       0.2960   0.2993
   so    n   1       0.3105   0.2692
   so   h1   1       0.2716   0.0818
   so   ca   1       0.3180   0.1915
   so   ha   1       0.2780   0.0800
   so   n3   1       0.3105   0.2692
   so   hx   1       0.2460   0.0818
   so   n4   1       0.3105   0.2692
   so   hn   1       0.2014   0.0818
   sn   Br   1       0.1625   0.0000
   sn    C   1       0.3325   0.1723
   sn   C6   1       0.3325   0.1723
   sn   C5   1       0.3325   0.1723
   sn   CA   1       0.3325   0.1723
   sn   CB   1       0.3325   0.1723
   sn   CC   1       0.3325   0.1723
   sn   CK   1       0.3325   0.1723
   sn   CM   1       0.3325   0.1723
   sn   CN   1       0.3325   0.1723
   sn   CQ   1       0.3325   0.1723
   sn   CR   1       0.3325   0.1723
   sn   CT   1       0.3325   0.1943
   sn   C1   1       0.3325   0.1943
   sn   C3   1       0.3325   0.1943
   sn   C4   1       0.3325   0.1943
   sn   C7   1       0.3325   0.1943
   sn   C8   1       0.3325   0.1943
   sn   C9   1       0.3325   0.1943
   sn   CV   1       0.3325   0.1723
   sn   CW   1       0.3325   0.1723
   sn   C*   1       0.3325   0.1723
   sn   C0   1       0.3151   0.3984
   sn    F   1       0.3184   0.1451
   sn    H   1       0.2160   0.0736
   sn   HB   1       0.2160   0.0736
   sn   HC   1       0.2950   0.0736
   sn   H1   1       0.2861   0.0736
   sn   H2   1       0.2772   0.0736
   sn   H3   1       0.2682   0.0736
   sn   HA   1       0.2925   0.0720
   sn   H4   1       0.2880   0.0720
   sn   H5   1       0.2836   0.0720
   sn   HO   1       0.1625   0.0000
   sn   HS   1       0.2160   0.0736
   sn   HW   1       0.1625   0.0000
   sn   HP   1       0.2605   0.0736
   sn    I   1       0.3719   0.3716
   sn   Cl   1       0.3826   0.1858
   sn   Na   1       0.3289   0.0309
   sn   IB   1       0.6079   0.1858
   sn   MG   1       0.2331   0.5558
   sn    N   1       0.3250   0.2423
   sn   NA   1       0.3250   0.2423
   sn   NB   1       0.3250   0.2423
   sn   NC   1       0.3250   0.2423
   sn   N2   1       0.3250   0.2423
   sn   N3   1       0.3250   0.2423
   sn   N*   1       0.3250   0.2423
   sn    O   1       0.3105   0.2692
   sn   OB   1       0.3105   0.2692
   sn   OW   1       0.3200   0.2291
   sn   OH   1       0.3158   0.2695
   sn   O3   1       0.3158   0.2695
   sn   OS   1       0.3125   0.2423
   sn   O2   1       0.3105   0.2692
   sn    P   1       0.3496   0.2628
   sn    S   1       0.3407   0.2938
   sn   SH   1       0.3407   0.2938
   sn   CU   1       0.3325   0.1723
   sn   FE   1       0.1625   0.0000
   sn    K   1       0.3993   0.0106
   sn   Rb   1       0.4258   0.0077
   sn   Li   1       0.2638   0.0795
   sn   Zn   1       0.2605   0.0657
   sn HW_tip4pew   1       0.1625   0.0000
   sn OW_tip4pew   1       0.3207   0.2370
   sn HW_tip4p   1       0.1625   0.0000
   sn OW_tip4p   1       0.3202   0.2313
   sn HW_tip5p   1       0.1625   0.0000
   sn OW_tip5p   1       0.3185   0.2350
   sn HW_tip4pd   1       0.1625   0.0000
   sn OW_tip4pd   1       0.3207   0.2871
   sn   MW   1       0.1625   0.0000
   sn MCH3   1       0.1625   0.0000
   sn MNH3   1       0.1625   0.0000
   sn   c3   1       0.3325   0.1943
   sn   hc   1       0.2950   0.0736
   sn    c   1       0.3325   0.1723
   sn    o   1       0.3105   0.2692
   sn    n   1       0.3250   0.2423
   sn   h1   1       0.2861   0.0736
   sn   ca   1       0.3325   0.1723
   sn   ha   1       0.2925   0.0720
   sn   n3   1       0.3250   0.2423
   sn   hx   1       0.2605   0.0736
   sn   n4   1       0.3250   0.2423
   sn   hn   1       0.2160   0.0736
  sh1   Br   1       0.1236   0.0000
  sh1    C   1       0.2936   0.0524
  sh1   C6   1       0.2936   0.0524
  sh1   C5   1       0.2936   0.0524
  sh1   CA   1       0.2936   0.0524
  sh1   CB   1       0.2936   0.0524
  sh1   CC   1       0.2936   0.0524
  sh1   CK   1       0.2936   0.0524
  sh1   CM   1       0.2936   0.0524
  sh1   CN   1       0.2936   0.0524
  sh1   CQ   1       0.2936   0.0524
  sh1   CR   1       0.2936   0.0524
  sh1   CT   1       0.2936   0.0591
  sh1   C1   1       0.2936   0.0591
  sh1   C3   1       0.2936   0.0591
  sh1   C4   1       0.2936   0.0591
  sh1   C7   1       0.2936   0.0591
  sh1   C8   1       0.2936   0.0591
  sh1   C9   1       0.2936   0.0591
  sh1   CV   1       0.2936   0.0524
  sh1   CW   1       0.2936   0.0524
  sh1   C*   1       0.2936   0.0524
  sh1   C0   1       0.2762   0.1211
  sh1    F   1       0.2795   0.0441
  sh1    H   1       0.1770   0.0224
  sh1   HB   1       0.1770   0.0224
  sh1   HC   1       0.2560   0.0224
  sh1   H1   1       0.2471   0.0224
  sh1   H2   1       0.2382   0.0224
  sh1   H3   1       0.2293   0.0224
  sh1   HA   1       0.2535   0.0219
  sh1   H4   1       0.2491   0.0219
  sh1   H5   1       0.2446   0.0219
  sh1   HO   1       0.1236   0.0000
  sh1   HS   1       0.1770   0.0224
  sh1   HW   1       0.1236   0.0000
  sh1   HP   1       0.2216   0.0224
  sh1    I   1       0.3329   0.1129
  sh1   Cl   1       0.3436   0.0565
  sh1   Na   1       0.2900   0.0094
  sh1   IB   1       0.5690   0.0565
  sh1   MG   1       0.1942   0.1689
  sh1    N   1       0.2861   0.0736
  sh1   NA   1       0.2861   0.0736
  sh1   NB   1       0.2861   0.0736
  sh1   NC   1       0.2861   0.0736
  sh1   N2   1       0.2861   0.0736
  sh1   N3   1       0.2861   0.0736
  sh1   N*   1       0.2861   0.0736
  sh1    O   1       0.2716   0.0818
  sh1   OB   1       0.2716   0.0818
  sh1   OW   1       0.2811   0.0696
  sh1   OH   1       0.2769   0.0819
  sh1   O3   1       0.2769   0.0819
  sh1   OS   1       0.2736   0.0736
  sh1   O2   1       0.2716   0.0818
  sh1    P   1       0.3107   0.0799
  sh1    S   1       0.3017   0.0893
  sh1   SH   1       0.3017   0.0893
  sh1   CU   1       0.2936   0.0524
  sh1   FE   1       0.1236   0.0000
  sh1    K   1       0.3604   0.0032
  sh1   Rb   1       0.3869   0.0023
  sh1   Li   1       0.2249   0.0242
  sh1   Zn   1       0.2216   0.0200
  sh1 HW_tip4pew   1       0.1236   0.0000
  sh1 OW_tip4pew   1       0.2818   0.0720
  sh1 HW_tip4p   1       0.1236   0.0000
  sh1 OW_tip4p   1       0.2812   0.0703
  sh1 HW_tip5p   1       0.1236   0.0000
  sh1 OW_tip5p   1       0.2796   0.0714
  sh1 HW_tip4pd   1       0.1236   0.0000
  sh1 OW_tip4pd   1       0.2818   0.0872
  sh1   MW   1       0.1236   0.0000
  sh1 MCH3   1       0.1236   0.0000
  sh1 MNH3   1       0.1236   0.0000
  sh1   c3   1       0.2936   0.0591
  sh1   hc   1       0.2560   0.0224
  sh1    c   1       0.2936   0.0524
  sh1    o   1       0.2716   0.0818
  sh1    n   1       0.2861   0.0736
  sh1   h1   1       0.2471   0.0224
  sh1   ca   1       0.2936   0.0524
  sh1   ha   1       0.2535   0.0219
  sh1   n3   1       0.2861   0.0736
  sh1   hx   1       0.2216   0.0224
  sh1   n4   1       0.2861   0.0736
  sh1   hn   1       0.1770   0.0224
  sca   Br   1       0.1700   0.0000
  sca    C   1       0.3400   0.1226
  sca   C6   1       0.3400   0.1226
  sca   C5   1       0.3400   0.1226
  sca   CA   1       0.3400   0.1226
  sca   CB   1       0.3400   0.1226
  sca   CC   1       0.3400   0.1226
  sca   CK   1       0.3400   0.1226
  sca   CM   1       0.3400   0.1226
  sca   CN   1       0.3400   0.1226
  sca   CQ   1       0.3400   0.1226
  sca   CR   1       0.3400   0.1226
  sca   CT   1       0.3400   0.1382
  sca   C1   1       0.3400   0.1382
  sca   C3   1       0.3400   0.1382
  sca   C4   1       0.3400   0.1382
  sca   C7   1       0.3400   0.1382
  sca   C8   1       0.3400   0.1382
  sca   C9   1       0.3400   0.1382
  sca   CV   1       0.3400   0.1226
  sca   CW   1       0.3400   0.1226
  sca   C*   1       0.3400   0.1226
  sca   C0   1       0.3226   0.2834
  sca    F   1       0.3259   0.1032
  sca    H   1       0.2234   0.0524
  sca   HB   1       0.2234   0.0524
  sca   HC   1       0.3025   0.0524
  sca   H1   1       0.2936   0.0524
  sca   H2   1       0.2846   0.0524
  sca   H3   1       0.2757   0.0524
  sca   HA   1       0.3000   0.0512
  sca   H4   1       0.2955   0.0512
  sca   H5   1       0.2911   0.0512
  sca   HO   1       0.1700   0.0000
  sca   HS   1       0.2234   0.0524
  sca   HW   1       0.1700   0.0000
  sca   HP   1       0.2680   0.0524
  sca    I   1       0.3793   0.2643
  sca   Cl   1       0.3900   0.1322
  sca   Na   1       0.3364   0.0220
  sca   IB   1       0.6154   0.1322
  sca   MG   1       0.2406   0.3953
  sca    N   1       0.3325   0.1723
  sca   NA   1       0.3325   0.1723
  sca   NB   1       0.3325   0.1723
  sca   NC   1       0.3325   0.1723
  sca   N2   1       0.3325   0.1723
  sca   N3   1       0.3325   0.1723
  sca   N*   1       0.3325   0.1723
  sca    O   1       0.3180   0.1915
  sca   OB   1       0.3180   0.1915
  sca   OW   1       0.3275   0.1630
  sca   OH   1       0.3233   0.1917
  sca   O3   1       0.3233   0.1917
  sca   OS   1       0.3200   0.1723
  sca   O2   1       0.3180   0.1915
  sca    P   1       0.3571   0.1869
  sca    S   1       0.3482   0.2089
  sca   SH   1       0.3482   0.2089
  sca   CU   1       0.3400   0.1226
  sca   FE   1       0.1700   0.0000
  sca    K   1       0.4068   0.0076
  sca   Rb   1       0.4333   0.0054
  sca   Li   1       0.2713   0.0565
  sca   Zn   1       0.2680   0.0467
  sca HW_tip4pew   1       0.1700   0.0000
  sca OW_tip4pew   1       0.3282   0.1686
  sca HW_tip4p   1       0.1700   0.0000
  sca OW_tip4p   1       0.3277   0.1645
  sca HW_tip5p   1       0.1700   0.0000
  sca OW_tip5p   1       0.3260   0.1672
  sca HW_tip4pd   1       0.1700   0.0000
  sca OW_tip4pd   1       0.3282   0.2042
  sca   MW   1       0.1700   0.0000
  sca MCH3   1       0.1700   0.0000
  sca MNH3   1       0.1700   0.0000
  sca   c3   1       0.3400   0.1382
  sca   hc   1       0.3025   0.0524
  sca    c   1       0.3400   0.1226
  sca    o   1       0.3180   0.1915
  sca    n   1       0.3325   0.1723
  sca   h1   1       0.2936   0.0524
  sca   ca   1       0.3400   0.1226
  sca   ha   1       0.3000   0.0512
  sca   n3   1       0.3325   0.1723
  sca   hx   1       0.2680   0.0524
  sca   n4   1       0.3325   0.1723
  sca   hn   1       0.2234   0.0524
  sha   Br   1       0.1300   0.0000
  sha    C   1       0.3000   0.0512
  sha   C6   1       0.3000   0.0512
  sha   C5   1       0.3000   0.0512
  sha   CA   1       0.3000   0.0512
  sha   CB   1       0.3000   0.0512
  sha   CC   1       0.3000   0.0512
  sha   CK   1       0.3000   0.0512
  sha   CM   1       0.3000   0.0512
  sha   CN   1       0.3000   0.0512
  sha   CQ   1       0.3000   0.0512
  sha   CR   1       0.3000   0.0512
  sha   CT   1       0.3000   0.0577
  sha   C1   1       0.3000   0.0577
  sha   C3   1       0.3000   0.0577
  sha   C4   1       0.3000   0.0577
  sha   C7   1       0.3000   0.0577
  sha   C8   1       0.3000   0.0577
  sha   C9   1       0.3000   0.0577
  sha   CV   1       0.3000   0.0512
  sha   CW   1       0.3000   0.0512
  sha   C*   1       0.3000   0.0512
  sha   C0   1       0.2826   0.1183
  sha    F   1       0.2859   0.0431
  sha    H   1       0.1834   0.0219
  sha   HB   1       0.1834   0.0219
  sha   HC   1       0.2625   0.0219
  sha   H1   1       0.2535   0.0219
  sha   H2   1       0.2446   0.0219
  sha   H3   1       0.2357   0.0219
  sha   HA   1       0.2600   0.0214
  sha   H4   1       0.2555   0.0214
  sha   H5   1       0.2511   0.0214
  sha   HO   1       0.1300   0.0000
  sha   HS   1       0.1834   0.0219
  sha   HW   1       0.1300   0.0000
  sha   HP   1       0.2280   0.0219
  sha    I   1       0.3393   0.1104
  sha   Cl   1       0.3500   0.0552
  sha   Na   1       0.2964   0.0092
  sha   IB   1       0.5754   0.0552
  sha   MG   1       0.2006   0.1651
  sha    N   1       0.2925   0.0720
  sha   NA   1       0.2925   0.0720
  sha   NB   1       0.2925   0.0720
  sha   NC   1       0.2925   0.0720
  sha   N2   1       0.2925   0.0720
  sha   N3   1       0.2925   0.0720
  sha   N*   1       0.2925   0.0720
  sha    O   1       0.2780   0.0800
  sha   OB   1       0.2780   0.0800
  sha   OW   1       0.2875   0.0681
  sha   OH   1       0.2833   0.0801
  sha   O3   1       0.2833   0.0801
  sha   OS   1       0.2800   0.0720
  sha   O2   1       0.2780   0.0800
  sha    P   1       0.3171   0.0781
  sha    S   1       0.3082   0.0873
  sha   SH   1       0.3082   0.0873
  sha   CU   1       0.3000   0.0512
  sha   FE   1       0.1300   0.0000
  sha    K   1       0.3668   0.0032
  sha   Rb   1       0.3933   0.0023
  sha   Li   1       0.2313   0.0236
  sha   Zn   1       0.2280   0.0195
  sha HW_tip4pew   1       0.1300   0.0000
  sha OW_tip4pew   1       0.2882   0.0704
  sha HW_tip4p   1       0.1300   0.0000
  sha OW_tip4p   1       0.2877   0.0687
  sha HW_tip5p   1       0.1300   0.0000
  sha OW_tip5p   1       0.2860   0.0698
  sha HW_tip4pd   1       0.1300   0.0000
  sha OW_tip4pd   1       0.2882   0.0853
  sha   MW   1       0.1300   0.0000
  sha MCH3   1       0.1300   0.0000
  sha MNH3   1       0.1300   0.0000
  sha   c3   1       0.3000   0.0577
  sha   hc   1       0.2625   0.0219
  sha    c   1       0.3000   0.0512
  sha    o   1       0.2780   0.0800
  sha    n   1       0.2925   0.0720
  sha   h1   1       0.2535   0.0219
  sha   ca   1       0.3000   0.0512
  sha   ha   1       0.2600   0.0214
  sha   n3   1       0.2925   0.0720
  sha   hx   1       0.2280   0.0219
  sha   n4   1       0.2925   0.0720
  sha   hn   1       0.1834   0.0219
   sy   Br   1       0.1782   0.0000
   sy    C   1       0.3482   0.5235
   sy   C6   1       0.3482   0.5235
   sy   C5   1       0.3482   0.5235
   sy   CA   1       0.3482   0.5235
   sy   CB   1       0.3482   0.5235
   sy   CC   1       0.3482   0.5235
   sy   CK   1       0.3482   0.5235
   sy   CM   1       0.3482   0.5235
   sy   CN   1       0.3482   0.5235
   sy   CQ   1       0.3482   0.5235
   sy   CR   1       0.3482   0.5235
   sy   CT   1       0.3482   0.5904
   sy   C1   1       0.3482   0.5904
   sy   C3   1       0.3482   0.5904
   sy   C4   1       0.3482   0.5904
   sy   C7   1       0.3482   0.5904
   sy   C8   1       0.3482   0.5904
   sy   C9   1       0.3482   0.5904
   sy   CV   1       0.3482   0.5235
   sy   CW   1       0.3482   0.5235
   sy   C*   1       0.3482   0.5235
   sy   C0   1       0.3308   1.2104
   sy    F   1       0.3341   0.4409
   sy    H   1       0.2316   0.2237
   sy   HB   1       0.2316   0.2237
   sy   HC   1       0.3107   0.2237
   sy   H1   1       0.3017   0.2237
   sy   H2   1       0.2928   0.2237
   sy   H3   1       0.2839   0.2237
   sy   HA   1       0.3082   0.2186
   sy   H4   1       0.3037   0.2186
   sy   H5   1       0.2993   0.2186
   sy   HO   1       0.1782   0.0000
   sy   HS   1       0.2316   0.2237
   sy   HW   1       0.1782   0.0000
   sy   HP   1       0.2762   0.2237
   sy    I   1       0.3875   1.1289
   sy   Cl   1       0.3982   0.5645
   sy   Na   1       0.3446   0.0939
   sy   IB   1       0.6236   0.5645
   sy   MG   1       0.2488   1.6884
   sy    N   1       0.3407   0.7360
   sy   NA   1       0.3407   0.7360
   sy   NB   1       0.3407   0.7360
   sy   NC   1       0.3407   0.7360
   sy   N2   1       0.3407   0.7360
   sy   N3   1       0.3407   0.7360
   sy   N*   1       0.3407   0.7360
   sy    O   1       0.3262   0.8180
   sy   OB   1       0.3262   0.8180
   sy   OW   1       0.3357   0.6961
   sy   OH   1       0.3315   0.8188
   sy   O3   1       0.3315   0.8188
   sy   OS   1       0.3282   0.7360
   sy   O2   1       0.3262   0.8180
   sy    P   1       0.3653   0.7983
   sy    S   1       0.3564   0.8925
   sy   SH   1       0.3564   0.8925
   sy   CU   1       0.3482   0.5235
   sy   FE   1       0.1782   0.0000
   sy    K   1       0.4150   0.0323
   sy   Rb   1       0.4415   0.0233
   sy   Li   1       0.2795   0.2415
   sy   Zn   1       0.2762   0.1996
   sy HW_tip4pew   1       0.1782   0.0000
   sy OW_tip4pew   1       0.3364   0.7201
   sy HW_tip4p   1       0.1782   0.0000
   sy OW_tip4p   1       0.3359   0.7027
   sy HW_tip5p   1       0.1782   0.0000
   sy OW_tip5p   1       0.3342   0.7140
   sy HW_tip4pd   1       0.1782   0.0000
   sy OW_tip4pd   1       0.3364   0.8722
   sy   MW   1       0.1782   0.0000
   sy MCH3   1       0.1782   0.0000
   sy MNH3   1       0.1782   0.0000
   sy   c3   1       0.3482   0.5904
   sy   hc   1       0.3107   0.2237
   sy    c   1       0.3482   0.5235
   sy    o   1       0.3262   0.8180
   sy    n   1       0.3407   0.7360
   sy   h1   1       0.3017   0.2237
   sy   ca   1       0.3482   0.5235
   sy   ha   1       0.3082   0.2186
   sy   n3   1       0.3407   0.7360
   sy   hx   1       0.2762   0.2237
   sy   n4   1       0.3407   0.7360
   sy   hn   1       0.2316   0.2237
  ssy   Br   1       0.1782   0.0000
  ssy    C   1       0.3482   0.2089
  ssy   C6   1       0.3482   0.2089
  ssy   C5   1       0.3482   0.2089
  ssy   CA   1       0.3482   0.2089
  ssy   CB   1       0.3482   0.2089
  ssy   CC   1       0.3482   0.2089
  ssy   CK   1       0.3482   0.2089
  ssy   CM   1       0.3482   0.2089
  ssy   CN   1       0.3482   0.2089
  ssy   CQ   1       0.3482   0.2089
  ssy   CR   1       0.3482   0.2089
  ssy   CT   1       0.3482   0.2357
  ssy   C1   1       0.3482   0.2357
  ssy   C3   1       0.3482   0.2357
  ssy   C4   1       0.3482   0.2357
  ssy   C7   1       0.3482   0.2357
  ssy   C8   1       0.3482   0.2357
  ssy   C9   1       0.3482   0.2357
  ssy   CV   1       0.3482   0.2089
  ssy   CW   1       0.3482   0.2089
  ssy   C*   1       0.3482   0.2089
  ssy   C0   1       0.3308   0.4831
  ssy    F   1       0.3341   0.1760
  ssy    H   1       0.2316   0.0893
  ssy   HB   1       0.2316   0.0893
  ssy   HC   1       0.3107   0.0893
  ssy   H1   1       0.3017   0.0893
  ssy   H2   1       0.2928   0.0893
  ssy   H3   1       0.2839   0.0893
  ssy   HA   1       0.3082   0.0873
  ssy   H4   1       0.3037   0.0873
  ssy   H5   1       0.2993   0.0873
  ssy   HO   1       0.1782   0.0000
  ssy   HS   1       0.2316   0.0893
  ssy   HW   1       0.1782   0.0000
  ssy   HP   1       0.2762   0.0893
  ssy    I   1       0.3875   0.4506
  ssy   Cl   1       0.3982   0.2253
  ssy   Na   1       0.3446   0.0375
  ssy   IB   1       0.6236   0.2253
  ssy   MG   1       0.2488   0.6740
  ssy    N   1       0.3407   0.2938
  ssy   NA   1       0.3407   0.2938
  ssy   NB   1       0.3407   0.2938
  ssy   NC   1       0.3407   0.2938
  ssy   N2   1       0.3407   0.2938
  ssy   N3   1       0.3407   0.2938
  ssy   N*   1       0.3407   0.2938
  ssy    O   1       0.3262   0.3265
  ssy   OB   1       0.3262   0.3265
  ssy   OW   1       0.3357   0.2779
  ssy   OH   1       0.3315   0.3268
  ssy   O3   1       0.3315   0.3268
  ssy   OS   1       0.3282   0.2938
  ssy   O2   1       0.3262   0.3265
  ssy    P   1       0.3653   0.3186
  ssy    S   1       0.3564   0.3563
  ssy   SH   1       0.3564   0.3563
  ssy   CU   1       0.3482   0.2089
  ssy   FE   1       0.1782   0.0000
  ssy    K   1       0.4150   0.0129
  ssy   Rb   1       0.4415   0.0093
  ssy   Li   1       0.2795   0.0964
  ssy   Zn   1       0.2762   0.0797
  ssy HW_tip4pew   1       0.1782   0.0000
  ssy OW_tip4pew   1       0.3364   0.2874
  ssy HW_tip4p   1       0.1782   0.0000
  ssy OW_tip4p   1       0.3359   0.2805
  ssy HW_tip5p   1       0.1782   0.0000
  ssy OW_tip5p   1       0.3342   0.2850
  ssy HW_tip4pd   1       0.1782   0.0000
  ssy OW_tip4pd   1       0.3364   0.3482
  ssy   MW   1       0.1782   0.0000
  ssy MCH3   1       0.1782   0.0000
  ssy MNH3   1       0.1782   0.0000
  ssy   c3   1       0.3482   0.2357
  ssy   hc   1       0.3107   0.0893
  ssy    c   1       0.3482   0.2089
  ssy    o   1       0.3262   0.3265
  ssy    n   1       0.3407   0.2938
  ssy   h1   1       0.3017   0.0893
  ssy   ca   1       0.3482   0.2089
  ssy   ha   1       0.3082   0.0873
  ssy   n3   1       0.3407   0.2938
  ssy   hx   1       0.2762   0.0893
  ssy   n4   1       0.3407   0.2938
  ssy   hn   1       0.2316   0.0893
  sn3   Br   1       0.1625   0.0000
  sn3    C   1       0.3325   0.1723
  sn3   C6   1       0.3325   0.1723
  sn3   C5   1       0.3325   0.1723
  sn3   CA   1       0.3325   0.1723
  sn3   CB   1       0.3325   0.1723
  sn3   CC   1       0.3325   0.1723
  sn3   CK   1       0.3325   0.1723
  sn3   CM   1       0.3325   0.1723
  sn3   CN   1       0.3325   0.1723
  sn3   CQ   1       0.3325   0.1723
  sn3   CR   1       0.3325   0.1723
  sn3   CT   1       0.3325   0.1943
  sn3   C1   1       0.3325   0.1943
  sn3   C3   1       0.3325   0.1943
  sn3   C4   1       0.3325   0.1943
  sn3   C7   1       0.3325   0.1943
  sn3   C8   1       0.3325   0.1943
  sn3   C9   1       0.3325   0.1943
  sn3   CV   1       0.3325   0.1723
  sn3   CW   1       0.3325   0.1723
  sn3   C*   1       0.3325   0.1723
  sn3   C0   1       0.3151   0.3984
  sn3    F   1       0.3184   0.1451
  sn3    H   1       0.2160   0.0736
  sn3   HB   1       0.2160   0.0736
  sn3   HC   1       0.2950   0.0736
  sn3   H1   1       0.2861   0.0736
  sn3   H2   1       0.2772   0.0736
  sn3   H3   1       0.2682   0.0736
  sn3   HA   1       0.2925   0.0720
  sn3   H4   1       0.2880   0.0720
  sn3   H5   1       0.2836   0.0720
  sn3   HO   1       0.1625   0.0000
  sn3   HS   1       0.2160   0.0736
  sn3   HW   1       0.1625   0.0000
  sn3   HP   1       0.2605   0.0736
  sn3    I   1       0.3719   0.3716
  sn3   Cl   1       0.3826   0.1858
  sn3   Na   1       0.3289   0.0309
  sn3   IB   1       0.6079   0.1858
  sn3   MG   1       0.2331   0.5558
  sn3    N   1       0.3250   0.2423
  sn3   NA   1       0.3250   0.2423
  sn3   NB   1       0.3250   0.2423
  sn3   NC   1       0.3250   0.2423
  sn3   N2   1       0.3250   0.2423
  sn3   N3   1       0.3250   0.2423
  sn3   N*   1       0.3250   0.2423
  sn3    O   1       0.3105   0.2692
  sn3   OB   1       0.3105   0.2692
  sn3   OW   1       0.3200   0.2291
  sn3   OH   1       0.3158   0.2695
  sn3   O3   1       0.3158   0.2695
  sn3   OS   1       0.3125   0.2423
  sn3   O2   1       0.3105   0.2692
  sn3    P   1       0.3496   0.2628
  sn3    S   1       0.3407   0.2938
  sn3   SH   1       0.3407   0.2938
  sn3   CU   1       0.3325   0.1723
  sn3   FE   1       0.1625   0.0000
  sn3    K   1       0.3993   0.0106
  sn3   Rb   1       0.4258   0.0077
  sn3   Li   1       0.2638   0.0795
  sn3   Zn   1       0.2605   0.0657
  sn3 HW_tip4pew   1       0.1625   0.0000
  sn3 OW_tip4pew   1       0.3207   0.2370
  sn3 HW_tip4p   1       0.1625   0.0000
  sn3 OW_tip4p   1       0.3202   0.2313
  sn3 HW_tip5p   1       0.1625   0.0000
  sn3 OW_tip5p   1       0.3185   0.2350
  sn3 HW_tip4pd   1       0.1625   0.0000
  sn3 OW_tip4pd   1       0.3207   0.2871
  sn3   MW   1       0.1625   0.0000
  sn3 MCH3   1       0.1625   0.0000
  sn3 MNH3   1       0.1625   0.0000
  sn3   c3   1       0.3325   0.1943
  sn3   hc   1       0.2950   0.0736
  sn3    c   1       0.3325   0.1723
  sn3    o   1       0.3105   0.2692
  sn3    n   1       0.3250   0.2423
  sn3   h1   1       0.2861   0.0736
  sn3   ca   1       0.3325   0.1723
  sn3   ha   1       0.2925   0.0720
  sn3   n3   1       0.3250   0.2423
  sn3   hx   1       0.2605   0.0736
  sn3   n4   1       0.3250   0.2423
  sn3   hn   1       0.2160   0.0736
  shx   Br   1       0.0980   0.0000
  shx    C   1       0.2680   0.0524
  shx   C6   1       0.2680   0.0524
  shx   C5   1       0.2680   0.0524
  shx   CA   1       0.2680   0.0524
  shx   CB   1       0.2680   0.0524
  shx   CC   1       0.2680   0.0524
  shx   CK   1       0.2680   0.0524
  shx   CM   1       0.2680   0.0524
  shx   CN   1       0.2680   0.0524
  shx   CQ   1       0.2680   0.0524
  shx   CR   1       0.2680   0.0524
  shx   CT   1       0.2680   0.0591
  shx   C1   1       0.2680   0.0591
  shx   C3   1       0.2680   0.0591
  shx   C4   1       0.2680   0.0591
  shx   C7   1       0.2680   0.0591
  shx   C8   1       0.2680   0.0591
  shx   C9   1       0.2680   0.0591
  shx   CV   1       0.2680   0.0524
  shx   CW   1       0.2680   0.0524
  shx   C*   1       0.2680   0.0524
  shx   C0   1       0.2506   0.1211
  shx    F   1       0.2539   0.0441
  shx    H   1       0.1515   0.0224
  shx   HB   1       0.1515   0.0224
  shx   HC   1       0.2305   0.0224
  shx   H1   1       0.2216   0.0224
  shx   H2   1       0.2127   0.0224
  shx   H3   1       0.2037   0.0224
  shx   HA   1       0.2280   0.0219
  shx   H4   1       0.2235   0.0219
  shx   H5   1       0.2191   0.0219
  shx   HO   1       0.0980   0.0000
  shx   HS   1       0.1515   0.0224
  shx   HW   1       0.0980   0.0000
  shx   HP   1       0.1960   0.0224
  shx    I   1       0.3074   0.1129
  shx   Cl   1       0.3181   0.0565
  shx   Na   1       0.2644   0.0094
  shx   IB   1       0.5434   0.0565
  shx   MG   1       0.1686   0.1689
  shx    N   1       0.2605   0.0736
  shx   NA   1       0.2605   0.0736
  shx   NB   1       0.2605   0.0736
  shx   NC   1       0.2605   0.0736
  shx   N2   1       0.2605   0.0736
  shx   N3   1       0.2605   0.0736
  shx   N*   1       0.2605   0.0736
  shx    O   1       0.2460   0.0818
  shx   OB   1       0.2460   0.0818
  shx   OW   1       0.2555   0.0696
  shx   OH   1       0.2513   0.0819
  shx   O3   1       0.2513   0.0819
  shx   OS   1       0.2480   0.0736
  shx   O2   1       0.2460   0.0818
  shx    P   1       0.2851   0.0799
  shx    S   1       0.2762   0.0893
  shx   SH   1       0.2762   0.0893
  shx   CU   1       0.2680   0.0524
  shx   FE   1       0.0980   0.0000
  shx    K   1       0.3348   0.0032
  shx   Rb   1       0.3613   0.0023
  shx   Li   1       0.1993   0.0242
  shx   Zn   1       0.1960   0.0200
  shx HW_tip4pew   1       0.0980   0.0000
  shx OW_tip4pew   1       0.2562   0.0720
  shx HW_tip4p   1       0.0980   0.0000
  shx OW_tip4p   1       0.2557   0.0703
  shx HW_tip5p   1       0.0980   0.0000
  shx OW_tip5p   1       0.2540   0.0714
  shx HW_tip4pd   1       0.0980   0.0000
  shx OW_tip4pd   1       0.2562   0.0872
  shx   MW   1       0.0980   0.0000
  shx MCH3   1       0.0980   0.0000
  shx MNH3   1       0.0980   0.0000
  shx   c3   1       0.2680   0.0591
  shx   hc   1       0.2305   0.0224
  shx    c   1       0.2680   0.0524
  shx    o   1       0.2460   0.0818
  shx    n   1       0.2605   0.0736
  shx   h1   1       0.2216   0.0224
  shx   ca   1       0.2680   0.0524
  shx   ha   1       0.2280   0.0219
  shx   n3   1       0.2605   0.0736
  shx   hx   1       0.1960   0.0224
  shx   n4   1       0.2605   0.0736
  shx   hn   1       0.1515   0.0224
  sn4   Br   1       0.1625   0.0000
  sn4    C   1       0.3325   0.1723
  sn4   C6   1       0.3325   0.1723
  sn4   C5   1       0.3325   0.1723
  sn4   CA   1       0.3325   0.1723
  sn4   CB   1       0.3325   0.1723
  sn4   CC   1       0.3325   0.1723
  sn4   CK   1       0.3325   0.1723
  sn4   CM   1       0.3325   0.1723
  sn4   CN   1       0.3325   0.1723
  sn4   CQ   1       0.3325   0.1723
  sn4   CR   1       0.3325   0.1723
  sn4   CT   1       0.3325   0.1943
  sn4   C1   1       0.3325   0.1943
  sn4   C3   1       0.3325   0.1943
  sn4   C4   1       0.3325   0.1943
  sn4   C7   1       0.3325   0.1943
  sn4   C8   1       0.3325   0.1943
  sn4   C9   1       0.3325   0.1943
  sn4   CV   1       0.3325   0.1723
  sn4   CW   1       0.3325   0.1723
  sn4   C*   1       0.3325   0.1723
  sn4   C0   1       0.3151   0.3984
  sn4    F   1       0.3184   0.1451
  sn4    H   1       0.2160   0.0736
  sn4   HB   1       0.2160   0.0736
  sn4   HC   1       0.2950   0.0736
  sn4   H1   1       0.2861   0.0736
  sn4   H2   1       0.2772   0.0736
  sn4   H3   1       0.2682   0.0736
  sn4   HA   1       0.2925   0.0720
  sn4   H4   1       0.2880   0.0720
  sn4   H5   1       0.2836   0.0720
  sn4   HO   1       0.1625   0.0000
  sn4   HS   1       0.2160   0.0736
  sn4   HW   1       0.1625   0.0000
  sn4   HP   1       0.2605   0.0736
  sn4    I   1       0.3719   0.3716
  sn4   Cl   1       0.3826   0.1858
  sn4   Na   1       0.3289   0.0309
  sn4   IB   1       0.6079   0.1858
  sn4   MG   1       0.2331   0.5558
  sn4    N   1       0.3250   0.2423
  sn4   NA   1       0.3250   0.2423
  sn4   NB   1       0.3250   0.2423
  sn4   NC   1       0.3250   0.2423
  sn4   N2   1       0.3250   0.2423
  sn4   N3   1       0.3250   0.2423
  sn4   N*   1       0.3250   0.2423
  sn4    O   1       0.3105   0.2692
  sn4   OB   1       0.3105   0.2692
  sn4   OW   1       0.3200   0.2291
  sn4   OH   1       0.3158   0.2695
  sn4   O3   1       0.3158   0.2695
  sn4   OS   1       0.3125   0.2423
  sn4   O2   1       0.3105   0.2692
  sn4    P   1       0.3496   0.2628
  sn4    S   1       0.3407   0.2938
  sn4   SH   1       0.3407   0.2938
  sn4   CU   1       0.3325   0.1723
  sn4   FE   1       0.1625   0.0000
  sn4    K   1       0.3993   0.0106
  sn4   Rb   1       0.4258   0.0077
  sn4   Li   1       0.2638   0.0795
  sn4   Zn   1       0.2605   0.0657
  sn4 HW_tip4pew   1       0.1625   0.0000
  sn4 OW_tip4pew   1       0.3207   0.2370
  sn4 HW_tip4p   1       0.1625   0.0000
  sn4 OW_tip4p   1       0.3202   0.2313
  sn4 HW_tip5p   1       0.1625   0.0000
  sn4 OW_tip5p   1       0.3185   0.2350
  sn4 HW_tip4pd   1       0.1625   0.0000
  sn4 OW_tip4pd   1       0.3207   0.2871
  sn4   MW   1       0.1625   0.0000
  sn4 MCH3   1       0.1625   0.0000
  sn4 MNH3   1       0.1625   0.0000
  sn4   c3   1       0.3325   0.1943
  sn4   hc   1       0.2950   0.0736
  sn4    c   1       0.3325   0.1723
  sn4    o   1       0.3105   0.2692
  sn4    n   1       0.3250   0.2423
  sn4   h1   1       0.2861   0.0736
  sn4   ca   1       0.3325   0.1723
  sn4   ha   1       0.2925   0.0720
  sn4   n3   1       0.3250   0.2423
  sn4   hx   1       0.2605   0.0736
  sn4   n4   1       0.3250   0.2423
  sn4   hn   1       0.2160   0.0736
  shn   Br   1       0.0535   0.0000
  shn    C   1       0.2234   0.0524
  shn   C6   1       0.2234   0.0524
  shn   C5   1       0.2234   0.0524
  shn   CA   1       0.2234   0.0524
  shn   CB   1       0.2234   0.0524
  shn   CC   1       0.2234   0.0524
  shn   CK   1       0.2234   0.0524
  shn   CM   1       0.2234   0.0524
  shn   CN   1       0.2234   0.0524
  shn   CQ   1       0.2234   0.0524
  shn   CR   1       0.2234   0.0524
  shn   CT   1       0.2234   0.0591
  shn   C1   1       0.2234   0.0591
  shn   C3   1       0.2234   0.0591
  shn   C4   1       0.2234   0.0591
  shn   C7   1       0.2234   0.0591
  shn   C8   1       0.2234   0.0591
  shn   C9   1       0.2234   0.0591
  shn   CV   1       0.2234   0.0524
  shn   CW   1       0.2234   0.0524
  shn   C*   1       0.2234   0.0524
  shn   C0   1       0.2061   0.1211
  shn    F   1       0.2094   0.0441
  shn    H   1       0.1069   0.0224
  shn   HB   1       0.1069   0.0224
  shn   HC   1       0.1859   0.0224
  shn   H1   1       0.1770   0.0224
  shn   H2   1       0.1681   0.0224
  shn   H3   1       0.1592   0.0224
  shn   HA   1       0.1834   0.0219
  shn   H4   1       0.1790   0.0219
  shn   H5   1       0.1745   0.0219
  shn   HO   1       0.0535   0.0000
  shn   HS   1       0.1069   0.0224
  shn   HW   1       0.0535   0.0000
  shn   HP   1       0.1515   0.0224
  shn    I   1       0.2628   0.1129
  shn   Cl   1       0.2735   0.0565
  shn   Na   1       0.2199   0.0094
  shn   IB   1       0.4989   0.0565
  shn   MG   1       0.1241   0.1689
  shn    N   1       0.2160   0.0736
  shn   NA   1       0.2160   0.0736
  shn   NB   1       0.2160   0.0736
  shn   NC   1       0.2160   0.0736
  shn   N2   1       0.2160   0.0736
  shn   N3   1       0.2160   0.0736
  shn   N*   1       0.2160   0.0736
  shn    O   1       0.2014   0.0818
  shn   OB   1       0.2014   0.0818
  shn   OW   1       0.2110   0.0696
  shn   OH   1       0.2068   0.0819
  shn   O3   1       0.2068   0.0819
  shn   OS   1       0.2035   0.0736
  shn   O2   1       0.2014   0.0818
  shn    P   1       0.2405   0.0799
  shn    S   1       0.2316   0.0893
  shn   SH   1       0.2316   0.0893
  shn   CU   1       0.2234   0.0524
  shn   FE   1       0.0535   0.0000
  shn    K   1       0.2903   0.0032
  shn   Rb   1       0.3168   0.0023
  shn   Li   1       0.1547   0.0242
  shn   Zn   1       0.1515   0.0200
  shn HW_tip4pew   1       0.0535   0.0000
  shn OW_tip4pew   1       0.2117   0.0720
  shn HW_tip4p   1       0.0535   0.0000
  shn OW_tip4p   1       0.2111   0.0703
  shn HW_tip5p   1       0.0535   0.0000
  shn OW_tip5p   1       0.2095   0.0714
  shn HW_tip4pd   1       0.0535   0.0000
  shn OW_tip4pd   1       0.2117   0.0872
  shn   MW   1       0.0535   0.0000
  shn MCH3   1       0.0535   0.0000
  shn MNH3   1       0.0535   0.0000
  shn   c3   1       0.2234   0.0591
  shn   hc   1       0.1859   0.0224
  shn    c   1       0.2234   0.0524
  shn    o   1       0.2014   0.0818
  shn    n   1       0.2160   0.0736
  shn   h1   1       0.1770   0.0224
  shn   ca   1       0.2234   0.0524
  shn   ha   1       0.1834   0.0219
  shn   n3   1       0.2160   0.0736
  shn   hx   1       0.1515   0.0224
  shn   n4   1       0.2160   0.0736
  shn   hn   1       0.1069   0.0224

 [ bondtypes ] 
; i    j  func       b0          kb
 C   C1      1    0.15220  265265.6  ; Amber99Sb-disp
 C1  H1      1    0.10900  284512.0  ; Amber99Sb-disp
 C1  N       1    0.14490  282001.6  ; Amber99Sb-disp
 C1  N3      1    0.14710  307105.6  ; Amber99Sb-disp
 HO  O3      1    0.09600  462750.4  ; Amber99Sb-disp
 C8  O3      1    0.14100  267776.0  ; Amber99Sb-disp
 C8  OH      1    0.14100  267776.0  ; Amber99Sb-disp
 CT  C8      1    0.15260  259408.0  ; Amber99Sb-disp
 CT  C9      1    0.15260  259408.0  ; Amber99Sb-disp
 C9  HC      1    0.10900  284512.0  ; Amber99Sb-disp
 C9  H1      1    0.10900  284512.0  ; Amber99Sb-disp
 C9  S       1    0.18100  189953.6  ; Amber99Sb-disp
 C9  C       1    0.15220  265265.6  ; Amber99Sb-disp
 C8  H1      1    0.10900  284512.0  ; Amber99Sb-disp
 C8  HC      1    0.10900  284512.0  ; Amber99Sb-disp
 OW  HW      1    0.09572  462750.4  ; Amber99Sb-disp
 HW  HW      1    0.15136  462750.4  ; Amber99Sb-disp
 C   C       1    0.15250  259408.0  ; Amber99Sb-disp
 C   CA      1    0.14090  392459.2  ; Amber99Sb-disp
 C   CB      1    0.14190  374049.6  ; Amber99Sb-disp
 C   CM      1    0.14440  343088.0  ; Amber99Sb-disp
 C   CT      1    0.15220  265265.6  ; Amber99Sb-disp
 C   N       1    0.13350  410032.0  ; Amber99Sb-disp
 C   N*      1    0.13830  354803.2  ; Amber99Sb-disp
 C   NA      1    0.13880  349782.4  ; Amber99Sb-disp
 C   NC      1    0.13580  382417.6  ; Amber99Sb-disp
 C   O       1    0.12290  476976.0  ; Amber99Sb-disp
 C   OB      1    0.12290  476976.0  ; Amber99Sb-disp
 C   O2      1    0.12500  548940.8  ; Amber99Sb-disp
 C   OH      1    0.13640  376560.0  ; Amber99Sb-disp
 C   OS      1    0.13230  376560.0  ; Amber99Sb-disp
 C   H4      1    0.10800  307105.6  ; Amber99Sb-disp
 C   H5      1    0.10800  307105.6  ; Amber99Sb-disp
 CA  CA      1    0.14000  392459.2  ; Amber99Sb-disp
 CA  CB      1    0.14040  392459.2  ; Amber99Sb-disp
 CA  CM      1    0.14330  357313.6  ; Amber99Sb-disp
 CA  CN      1    0.14000  392459.2  ; Amber99Sb-disp
 CA  CT      1    0.15100  265265.6  ; Amber99Sb-disp
 CA  HA      1    0.10800  307105.6  ; Amber99Sb-disp
 CA  H4      1    0.10800  307105.6  ; Amber99Sb-disp
 CA  N2      1    0.13400  402500.8  ; Amber99Sb-disp
 CA  NA      1    0.13810  357313.6  ; Amber99Sb-disp
 CA  NC      1    0.13390  404174.4  ; Amber99Sb-disp
 CA  OH      1    0.13640  376560.0  ; Amber99Sb-disp
 CB  CB      1    0.13700  435136.0  ; Amber99Sb-disp
 CB  N*      1    0.13740  364844.8  ; Amber99Sb-disp
 CB  NB      1    0.13910  346435.2  ; Amber99Sb-disp
 CB  NC      1    0.13540  385764.8  ; Amber99Sb-disp
 CK  H5      1    0.10800  307105.6  ; Amber99Sb-disp
 CK  N*      1    0.13710  368192.0  ; Amber99Sb-disp
 CK  NB      1    0.13040  442667.2  ; Amber99Sb-disp
 CM  CM      1    0.13500  459403.2  ; Amber99Sb-disp
 CM  CT      1    0.15100  265265.6  ; Amber99Sb-disp
 CM  HA      1    0.10800  307105.6  ; Amber99Sb-disp
 CM  H4      1    0.10800  307105.6  ; Amber99Sb-disp
 CM  H5      1    0.10800  307105.6  ; Amber99Sb-disp
 CM  N*      1    0.13650  374886.4  ; Amber99Sb-disp
 CM  OS      1    0.12400  401664.0  ; Amber99Sb-disp
 CQ  H5      1    0.10800  307105.6  ; Amber99Sb-disp
 CQ  NC      1    0.13240  420073.6  ; Amber99Sb-disp
 CT  CT      1    0.15260  259408.0  ; Amber99Sb-disp
 CT  HC      1    0.10900  284512.0  ; Amber99Sb-disp
 CT  H1      1    0.10900  284512.0  ; Amber99Sb-disp
 CT  H2      1    0.10900  284512.0  ; Amber99Sb-disp
 CT  H3      1    0.10900  284512.0  ; Amber99Sb-disp
 CT  HP      1    0.10900  284512.0  ; Amber99Sb-disp
 CT  N*      1    0.14750  282001.6  ; Amber99Sb-disp
 CT  N2      1    0.14630  282001.6  ; Amber99Sb-disp
 CT  OH      1    0.14100  267776.0  ; Amber99Sb-disp
 CT  OS      1    0.14100  267776.0  ; Amber99Sb-disp
 C*  HC      1    0.10800  307105.6  ; Amber99Sb-disp
 C*  CB      1    0.14590  324678.4  ; Amber99Sb-disp
 C*  CT      1    0.14950  265265.6  ; Amber99Sb-disp
 C*  CW      1    0.13520  456892.8  ; Amber99Sb-disp
 CB  CN      1    0.14190  374049.6  ; Amber99Sb-disp
 CC  CT      1    0.15040  265265.6  ; Amber99Sb-disp
 CC  CV      1    0.13750  428441.6  ; Amber99Sb-disp
 CC  CW      1    0.13710  433462.4  ; Amber99Sb-disp
 CC  NA      1    0.13850  353129.6  ; Amber99Sb-disp
 CC  NB      1    0.13940  343088.0  ; Amber99Sb-disp
 CN  NA      1    0.13800  358150.4  ; Amber99Sb-disp
 CR  H5      1    0.10800  307105.6  ; Amber99Sb-disp
 CR  NA      1    0.13430  399153.6  ; Amber99Sb-disp
 CR  NB      1    0.13350  408358.4  ; Amber99Sb-disp
 CT  N       1    0.14490  282001.6  ; Amber99Sb-disp
 CT  N3      1    0.14710  307105.6  ; Amber99Sb-disp
 CT  S       1    0.18100  189953.6  ; Amber99Sb-disp
 CT  SH      1    0.18100  198321.6  ; Amber99Sb-disp
 CV  H4      1    0.10800  307105.6  ; Amber99Sb-disp
 CV  NB      1    0.13940  343088.0  ; Amber99Sb-disp
 CW  H4      1    0.10800  307105.6  ; Amber99Sb-disp
 CW  NA      1    0.13810  357313.6  ; Amber99Sb-disp
 O2  P       1    0.14800  439320.0  ; Amber99Sb-disp
 OH  P       1    0.16100  192464.0  ; Amber99Sb-disp
 OS  P       1    0.16100  192464.0  ; Amber99Sb-disp
 H   N2      1    0.10100  363171.2  ; Amber99Sb-disp
 H   N*      1    0.10100  363171.2  ; Amber99Sb-disp
 H   NA      1    0.10100  363171.2  ; Amber99Sb-disp
 H   N       1    0.10100  363171.2  ; Amber99Sb-disp
 HB  N       1    0.10100  363171.2  ; Amber99Sb-disp
 H   N3      1    0.10100  363171.2  ; Amber99Sb-disp
 HO  OH      1    0.09600  462750.4  ; Amber99Sb-disp
 HO  OS      1    0.09600  462750.4  ; Amber99Sb-disp
 HS  SH      1    0.13360  229283.2  ; Amber99Sb-disp
 S   S       1    0.20380  138908.8  ; Amber99Sb-disp
 F   CT      1    0.13800  307105.6  ; Amber99Sb-disp
 Cl  CT      1    0.17660  194137.6  ; Amber99Sb-disp
 Br  CT      1    0.19440  133051.2  ; Amber99Sb-disp
 I   CT      1    0.21660  123846.4  ; Amber99Sb-disp
 F   CA      1    0.13590  323004.8  ; Amber99Sb-disp
 Cl  CA      1    0.17270  161502.4  ; Amber99Sb-disp
 I   CA      1    0.20750  143092.8  ; Amber99Sb-disp
 Br  CA      1    0.18900  143929.6  ; Amber99Sb-disp
 C7  CT      1    0.15260  259408.0  ; Amber99Sb-disp
 C   C7      1    0.15220  265265.6  ; Amber99Sb-disp
 C7  H1      1    0.10900  284512.0  ; Amber99Sb-disp
 C7  HP      1    0.10900  284512.0  ; Amber99Sb-disp
 C7  N       1    0.14490  282001.6  ; Amber99Sb-disp
 C7  N3      1    0.14710  307105.6  ; Amber99Sb-disp
 C3  HC      1    0.10900  284512.0  ; Amber99Sb-disp
 C4  HC      1    0.10900  284512.0  ; Amber99Sb-disp
 CT  C3      1    0.15260  259408.0  ; Amber99Sb-disp
 CT  C4      1    0.15260  259408.0  ; Amber99Sb-disp
 C6  O2      1    0.12500  548940.8  ; Amber99Sb-disp
 CC  O2      1    0.12500  548940.8  ; Amber99Sb-disp
 C5  O       1    0.12290  476976.0  ; Amber99Sb-disp
 C5  N       1    0.13350  410032.0  ; Amber99Sb-disp
 C5  CT      1    0.15220  265265.6  ; Amber99Sb-disp
 C6  CT      1    0.15220  265265.6  ; Amber99Sb-disp
 C1  HP      1    0.10900  284512.0  ; Amber99Sb-disp

 [ constrainttypes ] 
; this section is implemented manually from bond * angle values
; constraints for rigid CH3 groups
 MCH3   CT      2    0.166426
 MCH3   S       2    0.193875
 MCH3   MCH3    2    0.092163
; constraints for rigid NH3 groups
 MNH3   CT      2    0.158254
 MNH3   MNH3    2    0.080229
; angle-derived constraints for OH and SH groups in proteins
; The constraint A-C is calculated from the angle A-B-C and bonds A-B, B-C.
  C     HO      2    0.195074
  CA    HO      2    0.195074
  CT    HO      2    0.194132
  CT    HS      2    0.235935

 [ angletypes ] 
;  i    j    k  func       th0       cth
 C1  C   OH     1    110.000  669.440  ; Amber99Sb-disp
 C1  C   O      1    120.400  669.440  ; Amber99Sb-disp
 C1  C   OB     1    120.400  669.440  ; Amber99Sb-disp
 C1  C   O2     1    117.000  585.760  ; Amber99Sb-disp
 C1  C   N      1    116.600  585.760  ; Amber99Sb-disp
 H1  C1  H1     1    109.500  292.880  ; Amber99Sb-disp
 H1  C1  N      1    109.500  418.400  ; Amber99Sb-disp
 H1  C1  N3     1    109.500  418.400  ; Amber99Sb-disp
 C   C1  H1     1    109.500  418.400  ; Amber99Sb-disp
 C   C1  N      1    110.100  527.184  ; Amber99Sb-disp
 C   C1  N3     1    111.200  669.440  ; Amber99Sb-disp
 C   N   C1     1    121.900  418.400  ; Amber99Sb-disp
 C1  N   H      1    118.040  418.400  ; Amber99Sb-disp
 C1  N   HB     1    118.040  418.400  ; Amber99Sb-disp
 C1  N3  H      1    109.500  418.400  ; Amber99Sb-disp
 H1  C8  H1     1    109.500  292.880  ; Amber99Sb-disp
 H1  C8  O3     1    109.500  418.400  ; Amber99Sb-disp
 CT  C8  O3     1    109.500  418.400  ; Amber99Sb-disp
 C8  O3  HO     1    108.500  460.240  ; Amber99Sb-disp
 H1  C8  OH     1    109.500  418.400  ; Amber99Sb-disp
 CT  C8  OH     1    109.500  418.400  ; Amber99Sb-disp
 C8  OH  HO     1    108.500  460.240  ; Amber99Sb-disp
 CT  C8  CT     1    109.500  334.720  ; Amber99Sb-disp
 CT  C8  H1     1    109.500  418.400  ; Amber99Sb-disp
 CT  C8  HC     1    109.500  418.400  ; Amber99Sb-disp
 CT  C9  H1     1    109.500  418.400  ; Amber99Sb-disp
 H1  C9  S      1    109.500  418.400  ; Amber99Sb-disp
 CT  C9  S      1    114.700  418.400  ; Amber99Sb-disp
 C9  S   CT     1     98.900  518.816  ; Amber99Sb-disp
 CT  C9  HC     1    109.500  418.400  ; Amber99Sb-disp
 CT  C9  CT     1    109.500  334.720  ; Amber99Sb-disp
 C9  CT  CT     1    109.500  334.720  ; Amber99Sb-disp
 HC  C9  HC     1    109.500  292.880  ; Amber99Sb-disp
 C9  CT  HC     1    109.500  418.400  ; Amber99Sb-disp
 C9  CT  H1     1    109.500  418.400  ; Amber99Sb-disp
 H1  C9  H1     1    109.500  292.880  ; Amber99Sb-disp
 C9  C   O      1    120.400  669.440  ; Amber99Sb-disp
 C9  C   O2     1    117.000  585.760  ; Amber99Sb-disp
 C9  C   OH     1    110.000  669.440  ; Amber99Sb-disp
 C9  C   N      1    116.600  585.760  ; Amber99Sb-disp
 C   C9  CT     1    111.100  527.184  ; Amber99Sb-disp
 C   C9  HC     1    109.500  418.400  ; Amber99Sb-disp
 C9  CT  N2     1    111.200  669.440  ; Amber99Sb-disp
 C8  CT  N      1    109.700  669.440  ; Amber99Sb-disp
 C   CT  C8     1    111.100  527.184  ; Amber99Sb-disp
 C8  CT  HC     1    109.500  418.400  ; Amber99Sb-disp
 C8  CT  H1     1    109.500  418.400  ; Amber99Sb-disp
 H4  C   N      1    120.000  418.400  ; Amber99Sb-disp
 HW  OW  HW     1    104.520  836.800  ; Amber99Sb-disp
 HW  HW  OW     1    127.740    0.000  ; Amber99Sb-disp
 C   C   O      1    120.000  669.440  ; Amber99Sb-disp
 C   C   OH     1    120.000  669.440  ; Amber99Sb-disp
 CA  C   CA     1    120.000  527.184  ; Amber99Sb-disp
 CA  C   OH     1    120.000  585.760  ; Amber99Sb-disp
 CB  C   NA     1    111.300  585.760  ; Amber99Sb-disp
 CB  C   O      1    128.800  669.440  ; Amber99Sb-disp
 CM  C   NA     1    114.100  585.760  ; Amber99Sb-disp
 CM  C   O      1    125.300  669.440  ; Amber99Sb-disp
 CT  C   O      1    120.400  669.440  ; Amber99Sb-disp
 CT  C   OB     1    120.400  669.440  ; Amber99Sb-disp
 CT  C   O2     1    117.000  585.760  ; Amber99Sb-disp
 CT  C   N      1    116.600  585.760  ; Amber99Sb-disp
 CT  C   CT     1    117.000  527.184  ; Amber99Sb-disp
 CT  C   OS     1    115.000  669.440  ; Amber99Sb-disp
 CT  C   OH     1    110.000  669.440  ; Amber99Sb-disp
 N*  C   NA     1    115.400  585.760  ; Amber99Sb-disp
 N*  C   NC     1    118.600  585.760  ; Amber99Sb-disp
 N*  C   O      1    120.900  669.440  ; Amber99Sb-disp
 NA  C   O      1    120.600  669.440  ; Amber99Sb-disp
 NC  C   O      1    122.500  669.440  ; Amber99Sb-disp
 N   C   O      1    122.900  669.440  ; Amber99Sb-disp
 N   C   OB     1    122.900  669.440  ; Amber99Sb-disp
 O   C   O      1    126.000  669.440  ; Amber99Sb-disp
 O   C   OH     1    120.000  669.440  ; Amber99Sb-disp
 O   C   OS     1    125.000  669.440  ; Amber99Sb-disp
 O2  C   O2     1    126.000  669.440  ; Amber99Sb-disp
 H4  C   C      1    120.000  418.400  ; Amber99Sb-disp
 H4  C   CM     1    115.000  418.400  ; Amber99Sb-disp
 H4  C   CT     1    115.000  418.400  ; Amber99Sb-disp
 H4  C   O      1    120.000  418.400  ; Amber99Sb-disp
 H4  C   OH     1    120.000  418.400  ; Amber99Sb-disp
 H5  C   N      1    120.000  418.400  ; Amber99Sb-disp
 H5  C   O      1    119.000  418.400  ; Amber99Sb-disp
 H5  C   OH     1    107.000  418.400  ; Amber99Sb-disp
 H5  C   OS     1    107.000  418.400  ; Amber99Sb-disp
 C   CA  CA     1    120.000  527.184  ; Amber99Sb-disp
 C   CA  HA     1    120.000  418.400  ; Amber99Sb-disp
 CA  CA  CA     1    120.000  527.184  ; Amber99Sb-disp
 CA  CA  CB     1    120.000  527.184  ; Amber99Sb-disp
 CA  CA  CT     1    120.000  585.760  ; Amber99Sb-disp
 CA  CA  HA     1    120.000  418.400  ; Amber99Sb-disp
 CA  CA  H4     1    120.000  418.400  ; Amber99Sb-disp
 CA  CA  OH     1    120.000  585.760  ; Amber99Sb-disp
 CA  CA  CN     1    120.000  527.184  ; Amber99Sb-disp
 CB  CA  HA     1    120.000  418.400  ; Amber99Sb-disp
 CB  CA  H4     1    120.000  418.400  ; Amber99Sb-disp
 CB  CA  N2     1    123.500  585.760  ; Amber99Sb-disp
 CB  CA  NC     1    117.300  585.760  ; Amber99Sb-disp
 CM  CA  N2     1    120.100  585.760  ; Amber99Sb-disp
 CM  CA  NC     1    121.500  585.760  ; Amber99Sb-disp
 CN  CA  HA     1    120.000  418.400  ; Amber99Sb-disp
 NA  CA  NC     1    123.300  585.760  ; Amber99Sb-disp
 N2  CA  NA     1    116.000  585.760  ; Amber99Sb-disp
 N2  CA  NC     1    119.300  585.760  ; Amber99Sb-disp
 N2  CA  N2     1    120.000  585.760  ; Amber99Sb-disp
 F   CA  CA     1    121.000  585.760  ; Amber99Sb-disp
 Cl  CA  CA     1    118.800  585.760  ; Amber99Sb-disp
 I   CA  CA     1    118.800  585.760  ; Amber99Sb-disp
 C   CB  CB     1    119.200  527.184  ; Amber99Sb-disp
 C   CB  NB     1    130.000  585.760  ; Amber99Sb-disp
 CA  CB  CB     1    117.300  527.184  ; Amber99Sb-disp
 CA  CB  NB     1    132.400  585.760  ; Amber99Sb-disp
 CB  CB  N*     1    106.200  585.760  ; Amber99Sb-disp
 CB  CB  NB     1    110.400  585.760  ; Amber99Sb-disp
 CB  CB  NC     1    127.700  585.760  ; Amber99Sb-disp
 C*  CB  CA     1    134.900  527.184  ; Amber99Sb-disp
 C*  CB  CN     1    108.800  527.184  ; Amber99Sb-disp
 CA  CB  CN     1    116.200  527.184  ; Amber99Sb-disp
 N*  CB  NC     1    126.200  585.760  ; Amber99Sb-disp
 H5  CK  N*     1    123.050  418.400  ; Amber99Sb-disp
 H5  CK  NB     1    123.050  418.400  ; Amber99Sb-disp
 N*  CK  NB     1    113.900  585.760  ; Amber99Sb-disp
 C   CM  CM     1    120.700  527.184  ; Amber99Sb-disp
 C   CM  CT     1    119.700  585.760  ; Amber99Sb-disp
 C   CM  HA     1    119.700  418.400  ; Amber99Sb-disp
 C   CM  H4     1    119.700  418.400  ; Amber99Sb-disp
 CA  CM  CM     1    117.000  527.184  ; Amber99Sb-disp
 CA  CM  HA     1    123.300  418.400  ; Amber99Sb-disp
 CA  CM  H4     1    123.300  418.400  ; Amber99Sb-disp
 CM  CM  CT     1    119.700  585.760  ; Amber99Sb-disp
 CM  CM  HA     1    119.700  418.400  ; Amber99Sb-disp
 CM  CM  H4     1    119.700  418.400  ; Amber99Sb-disp
 CM  CM  N*     1    121.200  585.760  ; Amber99Sb-disp
 CM  CM  OS     1    125.000  669.440  ; Amber99Sb-disp
 H4  CM  N*     1    119.100  418.400  ; Amber99Sb-disp
 H4  CM  OS     1    113.000  418.400  ; Amber99Sb-disp
 HA  CM  HA     1    120.000  292.880  ; Amber99Sb-disp
 HA  CM  CT     1    120.000  418.400  ; Amber99Sb-disp
 NC  CQ  NC     1    129.100  585.760  ; Amber99Sb-disp
 H5  CQ  NC     1    115.450  418.400  ; Amber99Sb-disp
 H1  CT  H1     1    109.500  292.880  ; Amber99Sb-disp
 H1  CT  N*     1    109.500  418.400  ; Amber99Sb-disp
 H1  CT  OH     1    109.500  418.400  ; Amber99Sb-disp
 H1  CT  OS     1    109.500  418.400  ; Amber99Sb-disp
 H1  CT  CM     1    109.500  418.400  ; Amber99Sb-disp
 H1  CT  N      1    109.500  418.400  ; Amber99Sb-disp
 H1  CT  S      1    109.500  418.400  ; Amber99Sb-disp
 H1  CT  SH     1    109.500  418.400  ; Amber99Sb-disp
 H1  CT  N2     1    109.500  418.400  ; Amber99Sb-disp
 H2  CT  H2     1    109.500  292.880  ; Amber99Sb-disp
 H2  CT  N*     1    109.500  418.400  ; Amber99Sb-disp
 H2  CT  OS     1    109.500  418.400  ; Amber99Sb-disp
 HP  CT  HP     1    109.500  292.880  ; Amber99Sb-disp
 HP  CT  N3     1    109.500  418.400  ; Amber99Sb-disp
 HC  CT  HC     1    109.500  292.880  ; Amber99Sb-disp
 HC  CT  CM     1    109.500  418.400  ; Amber99Sb-disp
 C   CT  H1     1    109.500  418.400  ; Amber99Sb-disp
 C   CT  HP     1    109.500  418.400  ; Amber99Sb-disp
 C   CT  HC     1    109.500  418.400  ; Amber99Sb-disp
 C   CT  N      1    110.100  527.184  ; Amber99Sb-disp
 C   CT  N3     1    111.200  669.440  ; Amber99Sb-disp
 C   CT  CT     1    111.100  527.184  ; Amber99Sb-disp
 C   CT  OS     1    109.500  502.080  ; Amber99Sb-disp
 CA  CT  HC     1    109.500  418.400  ; Amber99Sb-disp
 CC  CT  CT     1    113.100  527.184  ; Amber99Sb-disp
 CC  CT  HC     1    109.500  418.400  ; Amber99Sb-disp
 CM  CT  CT     1    111.000  527.184  ; Amber99Sb-disp
 CM  CT  OS     1    109.500  418.400  ; Amber99Sb-disp
 CT  CT  CT     1    109.500  334.720  ; Amber99Sb-disp
 CT  CT  HC     1    109.500  418.400  ; Amber99Sb-disp
 CT  CT  H1     1    109.500  418.400  ; Amber99Sb-disp
 CT  CT  H2     1    109.500  418.400  ; Amber99Sb-disp
 CT  CT  HP     1    109.500  418.400  ; Amber99Sb-disp
 CT  CT  N*     1    109.500  418.400  ; Amber99Sb-disp
 CT  CT  OH     1    109.500  418.400  ; Amber99Sb-disp
 CT  CT  OS     1    109.500  418.400  ; Amber99Sb-disp
 CT  CT  S      1    114.700  418.400  ; Amber99Sb-disp
 CT  CT  SH     1    108.600  418.400  ; Amber99Sb-disp
 CT  CT  CA     1    114.000  527.184  ; Amber99Sb-disp
 CT  CT  N2     1    111.200  669.440  ; Amber99Sb-disp
 CT  CT  N      1    109.700  669.440  ; Amber99Sb-disp
 CT  CT  N3     1    111.200  669.440  ; Amber99Sb-disp
 C*  CT  CT     1    115.600  527.184  ; Amber99Sb-disp
 C*  CT  HC     1    109.500  418.400  ; Amber99Sb-disp
 OS  CT  OS     1    101.000 1338.880  ; Amber99Sb-disp
 OS  CT  N*     1    109.500  418.400  ; Amber99Sb-disp
 F   CT  F      1    109.100  644.336  ; Amber99Sb-disp
 F   CT  H1     1    109.500  418.400  ; Amber99Sb-disp
 F   CT  CT     1    109.000  418.400  ; Amber99Sb-disp
 F   CT  H2     1    109.500  418.400  ; Amber99Sb-disp
 Cl  CT  CT     1    108.500  418.400  ; Amber99Sb-disp
 Cl  CT  H1     1    108.500  418.400  ; Amber99Sb-disp
 I   CT  CT     1    106.000  418.400  ; Amber99Sb-disp
 CT  CC  NA     1    120.000  585.760  ; Amber99Sb-disp
 CT  CC  CV     1    120.000  585.760  ; Amber99Sb-disp
 CT  CC  NB     1    120.000  585.760  ; Amber99Sb-disp
 CV  CC  NA     1    120.000  585.760  ; Amber99Sb-disp
 CW  CC  NA     1    120.000  585.760  ; Amber99Sb-disp
 CW  CC  NB     1    120.000  585.760  ; Amber99Sb-disp
 CT  CC  CW     1    120.000  585.760  ; Amber99Sb-disp
 H5  CR  NA     1    120.000  418.400  ; Amber99Sb-disp
 H5  CR  NB     1    120.000  418.400  ; Amber99Sb-disp
 NA  CR  NA     1    120.000  585.760  ; Amber99Sb-disp
 NA  CR  NB     1    120.000  585.760  ; Amber99Sb-disp
 CC  CV  H4     1    120.000  418.400  ; Amber99Sb-disp
 CC  CV  NB     1    120.000  585.760  ; Amber99Sb-disp
 H4  CV  NB     1    120.000  418.400  ; Amber99Sb-disp
 CC  CW  H4     1    120.000  418.400  ; Amber99Sb-disp
 CC  CW  NA     1    120.000  585.760  ; Amber99Sb-disp
 C*  CW  H4     1    120.000  418.400  ; Amber99Sb-disp
 C*  CW  NA     1    108.700  585.760  ; Amber99Sb-disp
 H4  CW  NA     1    120.000  418.400  ; Amber99Sb-disp
 CB  C*  CT     1    128.600  585.760  ; Amber99Sb-disp
 CB  C*  CW     1    106.400  527.184  ; Amber99Sb-disp
 CT  C*  CW     1    125.000  585.760  ; Amber99Sb-disp
 CA  CN  CB     1    122.700  527.184  ; Amber99Sb-disp
 CA  CN  NA     1    132.800  585.760  ; Amber99Sb-disp
 CB  CN  NA     1    104.400  585.760  ; Amber99Sb-disp
 C   N   CT     1    121.900  418.400  ; Amber99Sb-disp
 C   N   H      1    120.000  418.400  ; Amber99Sb-disp
 C   N   HB     1    120.000  418.400  ; Amber99Sb-disp
 CT  N   H      1    118.040  418.400  ; Amber99Sb-disp
 CT  N   HB     1    118.040  418.400  ; Amber99Sb-disp
 CT  N   CT     1    118.000  418.400  ; Amber99Sb-disp
 H   N   H      1    120.000  292.880  ; Amber99Sb-disp
 C   N*  CM     1    121.600  585.760  ; Amber99Sb-disp
 C   N*  CT     1    117.600  585.760  ; Amber99Sb-disp
 C   N*  H      1    119.200  418.400  ; Amber99Sb-disp
 CB  N*  CK     1    105.400  585.760  ; Amber99Sb-disp
 CB  N*  CT     1    125.800  585.760  ; Amber99Sb-disp
 CB  N*  H      1    125.800  418.400  ; Amber99Sb-disp
 CK  N*  CT     1    128.800  585.760  ; Amber99Sb-disp
 CK  N*  H      1    128.800  418.400  ; Amber99Sb-disp
 CM  N*  CT     1    121.200  585.760  ; Amber99Sb-disp
 CM  N*  H      1    121.200  418.400  ; Amber99Sb-disp
 CA  N2  H      1    120.000  418.400  ; Amber99Sb-disp
 CA  N2  CT     1    123.200  418.400  ; Amber99Sb-disp
 CT  N2  H      1    118.400  418.400  ; Amber99Sb-disp
 H   N2  H      1    120.000  292.880  ; Amber99Sb-disp
 CT  N3  H      1    109.500  418.400  ; Amber99Sb-disp
 CT  N3  CT     1    109.500  418.400  ; Amber99Sb-disp
 H   N3  H      1    109.500  292.880  ; Amber99Sb-disp
 C   NA  C      1    126.400  585.760  ; Amber99Sb-disp
 C   NA  CA     1    125.200  585.760  ; Amber99Sb-disp
 C   NA  H      1    116.800  418.400  ; Amber99Sb-disp
 CA  NA  H      1    118.000  418.400  ; Amber99Sb-disp
 CC  NA  CR     1    120.000  585.760  ; Amber99Sb-disp
 CC  NA  H      1    120.000  418.400  ; Amber99Sb-disp
 CR  NA  CW     1    120.000  585.760  ; Amber99Sb-disp
 CR  NA  H      1    120.000  418.400  ; Amber99Sb-disp
 CW  NA  H      1    120.000  418.400  ; Amber99Sb-disp
 CN  NA  CW     1    111.600  585.760  ; Amber99Sb-disp
 CN  NA  H      1    123.100  418.400  ; Amber99Sb-disp
 CB  NB  CK     1    103.800  585.760  ; Amber99Sb-disp
 CC  NB  CR     1    117.000  585.760  ; Amber99Sb-disp
 CR  NB  CV     1    117.000  585.760  ; Amber99Sb-disp
 C   NC  CA     1    120.500  585.760  ; Amber99Sb-disp
 CA  NC  CB     1    112.200  585.760  ; Amber99Sb-disp
 CA  NC  CQ     1    118.600  585.760  ; Amber99Sb-disp
 CB  NC  CQ     1    111.000  585.760  ; Amber99Sb-disp
 C   OH  HO     1    113.000  418.400  ; Amber99Sb-disp
 CA  OH  HO     1    113.000  418.400  ; Amber99Sb-disp
 CT  OH  HO     1    108.500  460.240  ; Amber99Sb-disp
 HO  OH  P      1    108.500  376.560  ; Amber99Sb-disp
 C   OS  CT     1    117.000  502.080  ; Amber99Sb-disp
 CM  OS  CT     1    117.000  502.080  ; Amber99Sb-disp
 CT  OS  CT     1    109.500  502.080  ; Amber99Sb-disp
 CT  OS  P      1    120.500  836.800  ; Amber99Sb-disp
 P   OS  P      1    120.500  836.800  ; Amber99Sb-disp
 O2  P   OH     1    108.230  376.560  ; Amber99Sb-disp
 O2  P   O2     1    119.900 1171.520  ; Amber99Sb-disp
 O2  P   OS     1    108.230  836.800  ; Amber99Sb-disp
 OH  P   OS     1    102.600  376.560  ; Amber99Sb-disp
 OS  P   OS     1    102.600  376.560  ; Amber99Sb-disp
 CT  S   CT     1     98.900  518.816  ; Amber99Sb-disp
 CT  S   S      1    103.700  569.024  ; Amber99Sb-disp
 CT  SH  HS     1     96.000  359.824  ; Amber99Sb-disp
 HS  SH  HS     1     92.070  292.880  ; Amber99Sb-disp
 C7  C   O      1    120.400  669.440  ; Amber99Sb-disp
 C7  C   OB     1    120.400  669.440  ; Amber99Sb-disp
 C7  C   O2     1    117.000  585.760  ; Amber99Sb-disp
 C7  C   N      1    116.600  585.760  ; Amber99Sb-disp
 H1  C7  H1     1    109.500  292.880  ; Amber99Sb-disp
 H1  C7  N      1    109.500  418.400  ; Amber99Sb-disp
 HP  C7  HP     1    109.500  292.880  ; Amber99Sb-disp
 HP  C7  N3     1    109.500  418.400  ; Amber99Sb-disp
 C   C7  H1     1    109.500  418.400  ; Amber99Sb-disp
 C   C7  HP     1    109.500  418.400  ; Amber99Sb-disp
 C   C7  N      1    110.100  527.184  ; Amber99Sb-disp
 C   C7  N3     1    111.200  669.440  ; Amber99Sb-disp
 C   N   C7     1    121.900  418.400  ; Amber99Sb-disp
 C7  N   H      1    118.040  418.400  ; Amber99Sb-disp
 C7  N   HB     1    118.040  418.400  ; Amber99Sb-disp
 C7  N3  H      1    109.500  418.400  ; Amber99Sb-disp
 C7  N   CT     1    118.000  418.400  ; Amber99Sb-disp
 C7  N3  CT     1    109.500  418.400  ; Amber99Sb-disp
 CT  C7  N3     1    111.200  669.440  ; Amber99Sb-disp
 CT  C7  HP     1    109.500  418.400  ; Amber99Sb-disp
 C7  CT  CT     1    109.500  334.720  ; Amber99Sb-disp
 C7  CT  HC     1    109.500  418.400  ; Amber99Sb-disp
 CT  C7  N      1    109.700  669.440  ; Amber99Sb-disp
 C   C7  CT     1    111.100  527.184  ; Amber99Sb-disp
 CT  C7  H1     1    109.500  418.400  ; Amber99Sb-disp
 CT  C5  O      1    120.400  669.440  ; Amber99Sb-disp
 CT  C6  O2     1    117.000  585.760  ; Amber99Sb-disp
 CT  CC  O2     1    117.000  585.760  ; Amber99Sb-disp
 CT  C5  N      1    116.600  585.760  ; Amber99Sb-disp
 N   C5  O      1    122.900  669.440  ; Amber99Sb-disp
 O2  C6  O2     1    126.000  669.440  ; Amber99Sb-disp
 O2  CC  O2     1    126.000  669.440  ; Amber99Sb-disp
 HC  C3  HC     1    109.500  292.880  ; Amber99Sb-disp
 C5  CT  HC     1    109.500  418.400  ; Amber99Sb-disp
 C6  CT  HC     1    109.500  418.400  ; Amber99Sb-disp
 C5  CT  CT     1    111.100  527.184  ; Amber99Sb-disp
 C6  CT  CT     1    111.100  527.184  ; Amber99Sb-disp
 CT  C4  CT     1    109.500  334.720  ; Amber99Sb-disp
 CT  CT  C4     1    109.500  334.720  ; Amber99Sb-disp
 C4  CT  HC     1    109.500  418.400  ; Amber99Sb-disp
 CT  C4  HC     1    109.500  418.400  ; Amber99Sb-disp
 CT  CT  C3     1    109.500  334.720  ; Amber99Sb-disp
 CT  C3  HC     1    109.500  418.400  ; Amber99Sb-disp
 C3  CT  HC     1    109.500  418.400  ; Amber99Sb-disp
 C5  N   H      1    120.000  418.400  ; Amber99Sb-disp
 C5  N   HB     1    120.000  418.400  ; Amber99Sb-disp
 HP  C1  HP     1    109.500  292.880  ; Amber99Sb-disp
 HP  C1  N3     1    109.500  418.400  ; Amber99Sb-disp
 C   C1  HP     1    109.500  418.400  ; Amber99Sb-disp
 CT  C1  HP     1    109.500  418.400  ; Amber99Sb-disp

 [ dihedraltypes ] 
;i  j   k  l	 func      phase      kd      pn
 C   C1  N   O     4     180.0      4.60240     2  ; Amber99Sb-disp
 C   C1  N   OB    4     180.0      4.60240     2  ; Amber99Sb-disp
 C   C1  N   H     4     180.0      4.60240     2  ; Amber99Sb-disp
 C   C1  N   HB    4     180.0      4.60240     2  ; Amber99Sb-disp
 C9  O   C   OH    4     180.0     43.93200     2  ; Amber99Sb-disp
 CB  CK  N*  CT    4     180.0      4.18400     2  ; Amber99Sb-disp
 C   CM  N*  CT    4     180.0      4.18400     2  ; Amber99Sb-disp
 CT  O   C   OH    4     180.0     43.93200     2  ; Amber99Sb-disp
 CT  CV  CC  NA    4     180.0      4.60240     2  ; Amber99Sb-disp
 CT  CW  CC  NB    4     180.0      4.60240     2  ; Amber99Sb-disp
 CT  CC  CW  NB    4     180.0      4.60240     2  ; Amber99Sb-disp
 CT  CW  CC  NA    4     180.0      4.60240     2  ; Amber99Sb-disp
 CB  CT  C*  CW    4     180.0      4.60240     2  ; Amber99Sb-disp
 CA  CA  CA  CT    4     180.0      4.60240     2  ; Amber99Sb-disp
 C   CM  CM  CT    4     180.0      4.60240     2  ; Amber99Sb-disp
 CM  N2  CA  NC    4     180.0      4.60240     2  ; Amber99Sb-disp
 CB  N2  CA  NC    4     180.0      4.60240     2  ; Amber99Sb-disp
 N2  NA  CA  NC    4     180.0      4.60240     2  ; Amber99Sb-disp
 CA  CA  C   OH    4     180.0      4.60240     2  ; Amber99Sb-disp
 CA  CA  CA  OH    4     180.0      4.60240     2  ; Amber99Sb-disp
 H5  O   C   OH    4     180.0      4.60240     2  ; Amber99Sb-disp
 H5  O   C   OS    4     180.0      4.60240     2  ; Amber99Sb-disp
 CM  CT  CM  HA    4     180.0      4.60240     2  ; Amber99Sb-disp
 Br  CA  CA  CA    4     180.0      4.60240     2  ; Amber99Sb-disp
 CM  H4  C   O     4     180.0      4.60240     2  ; Amber99Sb-disp
 C   CT  N   H     4     180.0      4.60240     2  ; Amber99Sb-disp
 C   CT  N   HB    4     180.0      4.60240     2  ; Amber99Sb-disp
 C   CT  N   O     4     180.0      4.60240     2  ; Amber99Sb-disp
 C   C7  N   O     4     180.0      4.60240     2  ; Amber99Sb-disp
 C   CT  N   OB    4     180.0      4.60240     2  ; Amber99Sb-disp
 C   C7  N   OB    4     180.0      4.60240     2  ; Amber99Sb-disp
 C   C7  N   H     4     180.0      4.60240     2  ; Amber99Sb-disp
 C   C7  N   HB    4     180.0      4.60240     2  ; Amber99Sb-disp
 C5  CT  N   O     4     180.0      4.60240     2  ; Amber99Sb-disp
 C5  CT  N   OB    4     180.0      4.60240     2  ; Amber99Sb-disp
 C5  CT  N   H     4     180.0      4.60240     2  ; Amber99Sb-disp
 C5  CT  N   HB    4     180.0      4.60240     2  ; Amber99Sb-disp
 X   CT  N   C1    4     180.0      4.18400     2  ; Amber99Sb-disp
 X   CT  N   C7    4     180.0      4.18400     2  ; Amber99Sb-disp
 X   O2  C6  O2    4     180.0     43.93200     2  ; Amber99Sb-disp
 X   O2  C   O2    4     180.0     43.93200     2  ; Amber99Sb-disp
 X   N2  CA  N2    4     180.0     43.93200     2  ; Amber99Sb-disp
 X   CT  N   CT    4     180.0      4.18400     2  ; Amber99Sb-disp
 X   X   C   O     4     180.0     43.93200     2  ; Amber99Sb-disp
 X   X   C   OB    4     180.0     43.93200     2  ; Amber99Sb-disp
 X   X   N   H     4     180.0      4.18400     2  ; Amber99Sb-disp
 X   X   N2  H     4     180.0      4.18400     2  ; Amber99Sb-disp
 X   X   NA  H     4     180.0      4.18400     2  ; Amber99Sb-disp
 X   X   CA  HA    4     180.0      4.60240     2  ; Amber99Sb-disp
 X   X   CW  H4    4     180.0      4.60240     2  ; Amber99Sb-disp
 X   X   CR  H5    4     180.0      4.60240     2  ; Amber99Sb-disp
 X   X   CV  H4    4     180.0      4.60240     2  ; Amber99Sb-disp
 X   X   CQ  H5    4     180.0      4.60240     2  ; Amber99Sb-disp
 X   X   CK  H5    4     180.0      4.60240     2  ; Amber99Sb-disp
 X   X   CM  H4    4     180.0      4.60240     2  ; Amber99Sb-disp
 X   X   CM  HA    4     180.0      4.60240     2  ; Amber99Sb-disp
 X   X   CA  H4    4     180.0      4.60240     2  ; Amber99Sb-disp
 X   X   CA  H5    4     180.0      4.60240     2  ; Amber99Sb-disp
 X   X   C5  O     4     180.0     43.93200     2  ; Amber99Sb-disp
;i   j   k   l	   func	
 C8  CT  C   N     9       0.0      0.83680     1  ; Amber99Sb-disp
 C8  CT  C   N     9       0.0      0.83680     2  ; Amber99Sb-disp
 C8  CT  C   N     9       0.0      1.67360     3  ; Amber99Sb-disp
 C8  CT  N   C     9       0.0      8.36800     1  ; Amber99Sb-disp
 C8  CT  N   C     9       0.0      8.36800     2  ; Amber99Sb-disp
 C8  CT  N   C     9       0.0      1.67360     3  ; Amber99Sb-disp
 C   CT  C8  O3    9     180.0      4.18400     1  ; Amber99Sb-disp
 C   CT  C8  OH    9     180.0      3.76560     1  ; Amber99Sb-disp
 C   CT  CT  C4    9       0.0      2.39074     1  ; Amber99Sb-disp
 C   CT  CT  C4    9     180.0      1.49913     2  ; Amber99Sb-disp
 C   CT  CT  C4    9       0.0      0.56400     3  ; Amber99Sb-disp
 C   CT  CT  C5    9       0.0      0.71421     1  ; Amber99Sb-disp
 C   CT  CT  C5    9     180.0      2.49241     2  ; Amber99Sb-disp
 C   CT  CT  C5    9       0.0      0.49580     3  ; Amber99Sb-disp
 C   CT  CT  C5    9     180.0      1.74556     4  ; Amber99Sb-disp
 C   CT  CT  C5    9       0.0      0.43597     5  ; Amber99Sb-disp
 C   CT  CT  C5    9     180.0      0.42142     6  ; Amber99Sb-disp
 C   CT  CT  C*    9       0.0      1.21336     1  ; Amber99Sb-disp
 C   CT  CT  C9    9       0.0      1.25520     1  ; Amber99Sb-disp
 C   CT  CT  CA    9       0.0      2.17568     1  ; Amber99Sb-disp
 C   CT  CT  CC    9       0.0      2.92880     1  ; Amber99Sb-disp
 C   CT  CT  SH    9     180.0      0.66944     1  ; Amber99Sb-disp
 Cl  CT  CT  Cl    9     180.0      1.88280     1  ; Amber99Sb-disp
 CM  CM  C   O     9     180.0      9.10020     2  ; Amber99Sb-disp
 CM  CM  C   O     9       0.0      1.25520     3  ; Amber99Sb-disp
 C   N   C1  C     9       0.0      0.35267     1  ; Amber99Sb-disp
 C   N   C1  C     9       0.0      1.59541     2  ; Amber99Sb-disp
 C   N   C1  C     9     180.0      0.08381     3  ; Amber99Sb-disp
 C   N   C1  C     9       0.0      0.32396     4  ; Amber99Sb-disp
 C   N   C7  C     9       0.0      1.12968     2  ; Amber99Sb-disp
 C   N   C7  C     9       0.0      1.75728     3  ; Amber99Sb-disp
 C   N   CT  C     9     180.0      0.14226     1  ; Amber99Sb-disp
 C   N   CT  C     9       0.0      1.40164     2  ; Amber99Sb-disp
 C   N   CT  C     9       0.0      2.27610     3  ; Amber99Sb-disp
 C   N   CT  C     9       0.0      0.33472     4  ; Amber99Sb-disp
 ;CT  C4  CT  CT    9     180.0      0.83680     1  ; Amber99Sb-disp
 ;CT  C4  CT  CT    9     180.0      1.04600     2  ; Amber99Sb-disp
 ;CT  C4  CT  CT    9       0.0      0.75312     3  ; Amber99Sb-disp
 CT  C7  C   N     9       0.0      0.83680     1  ; Amber99Sb-disp
 CT  C7  C   N     9       0.0      0.83680     2  ; Amber99Sb-disp
 CT  C7  C   N     9       0.0      1.67360     3  ; Amber99Sb-disp
 CT  C7  N   C     9       0.0      8.36800     1  ; Amber99Sb-disp
 CT  C7  N   C     9       0.0      8.36800     2  ; Amber99Sb-disp
 CT  C7  N   C     9       0.0      1.67360     3  ; Amber99Sb-disp
 CT  C9  C   O2    9     180.0      2.51040     2  ; Amber99Sb-disp
 CT  C9  C   O     9     180.0      2.51040     2  ; Amber99Sb-disp
 CT  C9  C   OB    9     180.0      2.51040     2  ; Amber99Sb-disp
 CT  CM  CM  CT    9     180.0     27.82360     2  ; Amber99Sb-disp
 CT  CM  CM  CT    9     180.0      7.94960     1  ; Amber99Sb-disp
 CT  CT  C4  CT    9       0.0      0.62760     3  ; Amber99Sb-disp
 CT  CT  C5  O     9     180.0      4.18400     1  ; Amber99Sb-disp
 CT  CT  C6  O2    9     180.0      0.77822     4  ; Amber99Sb-disp
 CT  CT  C6  O2    9     180.0      1.48114     6  ; Amber99Sb-disp
 CT  CT  C6  O2    9     180.0      3.65263     2  ; Amber99Sb-disp
 CT  CT  C*  CW    9       0.0      5.02080     1  ; Amber99Sb-disp
 CT  CT  C   N     9       0.0      0.83680     1  ; Amber99Sb-disp
 CT  CT  C   N     9       0.0      0.83680     2  ; Amber99Sb-disp
 CT  CT  C   N     9       0.0      1.67360     3  ; Amber99Sb-disp
 CT  CT  CT  C3    9       0.0      0.62760     3  ; Amber99Sb-disp
 CT  CT  CT  C7    9       0.0      0.75312     3  ; Amber99Sb-disp
 CT  CT  CT  C7    9     180.0      0.83680     1  ; Amber99Sb-disp
 CT  CT  CT  C7    9     180.0      1.04600     2  ; Amber99Sb-disp
 CT  CT  CT  CT    9       0.0      0.62760     3  ; Amber99Sb-disp
 CT  CT  N   C     9       0.0      1.67360     3  ; Amber99Sb-disp
 CT  CT  N   C     9       0.0      8.36800     1  ; Amber99Sb-disp
 CT  CT  N   C     9       0.0      8.36800     2  ; Amber99Sb-disp
 CT  CT  OS  C     9       0.0      1.60247     3  ; Amber99Sb-disp
 CT  CT  OS  C     9     180.0      3.34720     1  ; Amber99Sb-disp
 CT  CT  OS  CT    9       0.0      1.60247     3  ; Amber99Sb-disp
 CT  CT  OS  CT    9     180.0      0.41840     2  ; Amber99Sb-disp
 CT  CT  SH  HS    9       0.0      0.83680     3  ; Amber99Sb-disp
 CT  CT  SH  HS    9       0.0      2.09200     2  ; Amber99Sb-disp
 CT  OS  CT  N*    9       0.0      1.60247     3  ; Amber99Sb-disp
 CT  OS  CT  N*    9       0.0      2.71960     2  ; Amber99Sb-disp
 CT  OS  CT  OS    9       0.0      0.41840     3  ; Amber99Sb-disp
 CT  OS  CT  OS    9     180.0      3.55640     2  ; Amber99Sb-disp
 CT  OS  CT  OS    9     180.0      5.64840     1  ; Amber99Sb-disp
 CT  S   S   CT    9       0.0     14.64400     2  ; Amber99Sb-disp
 CT  S   S   CT    9       0.0      2.51040     3  ; Amber99Sb-disp
 F   CT  CT  F     9     180.0      5.02080     1  ; Amber99Sb-disp
 H1  C1  C   O     9       0.0      3.34720     1  ; Amber99Sb-disp
 H1  C1  C   O     9     180.0      0.33472     3  ; Amber99Sb-disp
 H1  C7  C   O     9       0.0      3.34720     1  ; Amber99Sb-disp
 H1  C7  C   O     9     180.0      0.33472     3  ; Amber99Sb-disp
 H1  CT  C   O     9       0.0      3.34720     1  ; Amber99Sb-disp
 H1  CT  C   O     9     180.0      0.33472     3  ; Amber99Sb-disp
 H1  C1  C   OB    9       0.0      3.34720     1  ; Amber99Sb-disp
 H1  C1  C   OB    9     180.0      0.33472     3  ; Amber99Sb-disp
 H1  C7  C   OB    9       0.0      3.34720     1  ; Amber99Sb-disp
 H1  C7  C   OB    9     180.0      0.33472     3  ; Amber99Sb-disp
 H1  CT  C   OB    9       0.0      3.34720     1  ; Amber99Sb-disp
 H1  CT  C   OB    9     180.0      0.33472     3  ; Amber99Sb-disp
 H1  CT  CT  Br    9       0.0      2.30120     1  ; Amber99Sb-disp
 H1  CT  CT  Cl    9       0.0      1.04600     1  ; Amber99Sb-disp
 H1  CT  CT  F     9       0.0      0.79496     1  ; Amber99Sb-disp
 H1  CT  CT  OH    9       0.0      1.04600     1  ; Amber99Sb-disp
 H1  CT  CT  OS    9       0.0      1.04600     1  ; Amber99Sb-disp
 HC  C3  CT  CT    9       0.0      0.66944     3  ; Amber99Sb-disp
 HC  C4  CT  CT    9       0.0      0.66944     3  ; Amber99Sb-disp
 HC  C4  CT  HC    9       0.0      0.62760     3  ; Amber99Sb-disp
 HC  CT  C3  HC    9       0.0      0.62760     3  ; Amber99Sb-disp
 HC  CT  C4  CT    9       0.0      0.66944     3  ; Amber99Sb-disp
 HC  CT  C5  O     9       0.0      3.34720     1  ; Amber99Sb-disp
 HC  CT  C5  O     9     180.0      0.33472     3  ; Amber99Sb-disp
 HC  CT  CM  CM    9       0.0      4.81160     1  ; Amber99Sb-disp
 HC  CT  CM  CM    9     180.0      1.58992     3  ; Amber99Sb-disp
 HC  CT  C   O     9       0.0      3.34720     1  ; Amber99Sb-disp
 HC  CT  C   O     9     180.0      0.33472     3  ; Amber99Sb-disp
 HC  CT  C   OB    9       0.0      3.34720     1  ; Amber99Sb-disp
 HC  CT  C   OB    9     180.0      0.33472     3  ; Amber99Sb-disp
 HC  CT  CT  Br    9       0.0      2.30120     1  ; Amber99Sb-disp
 HC  CT  CT  C3    9       0.0      0.66944     3  ; Amber99Sb-disp
 HC  CT  CT  C4    9       0.0      0.66944     3  ; Amber99Sb-disp
 HC  CT  CT  C7    9       0.0      0.66944     3  ; Amber99Sb-disp
 HC  CT  CT  Cl    9       0.0      1.04600     1  ; Amber99Sb-disp
 HC  CT  CT  CT    9       0.0      0.66944     3  ; Amber99Sb-disp
 HC  CT  CT  F     9       0.0      0.79496     1  ; Amber99Sb-disp
 HC  CT  CT  HC    9       0.0      0.62760     3  ; Amber99Sb-disp
 HC  CT  CT  OH    9       0.0      1.04600     1  ; Amber99Sb-disp
 HC  CT  CT  OS    9       0.0      1.04600     1  ; Amber99Sb-disp
 H   N   C5  O     9       0.0      8.36800     1  ; Amber99Sb-disp
 H   N   C5  O     9     180.0     10.46000     2  ; Amber99Sb-disp
 H   N   C   O     9       0.0      8.36800     1  ; Amber99Sb-disp
 H   N   C   O     9     180.0     10.46000     2  ; Amber99Sb-disp
 HB  N   C   OB    9       0.0      8.36800     1  ; Amber99Sb-disp
 HB  N   C   OB    9     180.0     10.46000     2  ; Amber99Sb-disp
 HO  O3  C8  CT    9       0.0      0.35982     1  ; Amber99Sb-disp
 HO  O3  C8  CT    9       0.0      0.41840     3  ; Amber99Sb-disp
 HO  O3  C8  CT    9     180.0      0.68199     2  ; Amber99Sb-disp
 HO  O3  C8  H1    9       0.0      0.41840     3  ; Amber99Sb-disp
 HO  OH  C8  CT    9       0.0      0.25104     2  ; Amber99Sb-disp
 HO  OH  C8  CT    9       0.0      0.83680     3  ; Amber99Sb-disp
 HO  OH  C8  CT    9       0.0      3.13800     1  ; Amber99Sb-disp
 HO  OH  C   O     9       0.0      7.94960     1  ; Amber99Sb-disp
 HO  OH  C   O     9     180.0      9.62320     2  ; Amber99Sb-disp
 HO  OH  CT  CT    9       0.0      0.66944     3  ; Amber99Sb-disp
 HO  OH  CT  CT    9       0.0      1.04600     1  ; Amber99Sb-disp
 N3  CT  CT  C3    9       0.0      0.81630     1  ; Amber99Sb-disp
 N3  CT  CT  C3    9     180.0      3.53925     2  ; Amber99Sb-disp
 N3  CT  CT  C6    9     180.0     11.02568     1  ; Amber99Sb-disp
 N3  CT  CT  C6    9     180.0      4.98022     2  ; Amber99Sb-disp
 N3  CT  CT  C6    9     180.0      0.02845     3  ; Amber99Sb-disp
 N3  CT  CT  C6    9       0.0      1.76858     4  ; Amber99Sb-disp
 N3  CT  CT  C6    9       0.0      0.96943     5  ; Amber99Sb-disp
 N3  CT  CT  C6    9     180.0      0.89009     6  ; Amber99Sb-disp
 N   C1  C   N     9     180.0      2.69445     1  ; Amber99Sb-disp
 N   C1  C   N     9     180.0      6.68666     2  ; Amber99Sb-disp
 N   C1  C   N     9     180.0      1.67111     3  ; Amber99Sb-disp
 N   C1  C   N     9       0.0      0.31419     4  ; Amber99Sb-disp
 N   C5  CT  CT    9     180.0      4.37772     1  ; Amber99Sb-disp
 N   C5  CT  CT    9     180.0      0.75730     2  ; Amber99Sb-disp
 N   C5  CT  CT    9     180.0      0.14811     3  ; Amber99Sb-disp
 N   C5  CT  CT    9       0.0      0.41966     4  ; Amber99Sb-disp
 N   C5  CT  CT    9       0.0      0.54308     5  ; Amber99Sb-disp
 N   C5  CT  CT    9     180.0      0.44373     6  ; Amber99Sb-disp
 N   C7  C   N     9     180.0      1.88280     1  ; Amber99Sb-disp
 N   C7  C   N     9     180.0      6.61072     2  ; Amber99Sb-disp
 N   C7  C   N     9     180.0      2.30120     3  ; Amber99Sb-disp
 N   CT  C8  CT    9       0.0      0.25104     1  ; Amber99Sb-disp
 N   CT  C8  CT    9     180.0      2.09200     2  ; Amber99Sb-disp
 N   CT  C8  CT    9       0.0      0.62760     3  ; Amber99Sb-disp
 N   CT  C8  CT    9     180.0      0.27196     4  ; Amber99Sb-disp
 N   CT  C8  O3    9     180.0      0.33472     1  ; Amber99Sb-disp
 N   CT  C8  OH    9     180.0      1.04600     1  ; Amber99Sb-disp
 N   CT  C   N     9     360.0      0.82425     1  ; Amber99Sb-disp
 N   CT  C   N     9     180.0      6.04588     2  ; Amber99Sb-disp
 N   CT  C   N     9     180.0      2.00414     3  ; Amber99Sb-disp
 N   CT  C   N     9     360.0      0.07991     4  ; Amber99Sb-disp
 N   CT  C   N     9     360.0      0.01674     5  ; Amber99Sb-disp
 N   CT  CT  C3    9       0.0      0.81630     1  ; Amber99Sb-disp
 N   CT  CT  C3    9     180.0      3.53925     2  ; Amber99Sb-disp
 N   CT  CT  C5    9     180.0      2.63592     1  ; Amber99Sb-disp
 N   CT  CT  C6    9     180.0     12.05410     1  ; Amber99Sb-disp
 N   CT  CT  C6    9     180.0      5.06682     2  ; Amber99Sb-disp
 N   CT  CT  C6    9       0.0      0.25941     3  ; Amber99Sb-disp
 N   CT  CT  C6    9       0.0      1.02508     4  ; Amber99Sb-disp
 N   CT  CT  C6    9       0.0      0.54810     5  ; Amber99Sb-disp
 N   CT  CT  C6    9     180.0      0.59413     6  ; Amber99Sb-disp
 N   CT  CT  C9    9       0.0      0.41840     1  ; Amber99Sb-disp
 N   CT  CT  CC    9     180.0      1.67360     1  ; Amber99Sb-disp
 N   CT  CT  SH    9     180.0      2.30120     1  ; Amber99Sb-disp
 N   CT  CT  SH    9     180.0      2.63592     2  ; Amber99Sb-disp
 N   CT  CT  SH    9     180.0      0.25104     3  ; Amber99Sb-disp
 N   CT  CT  SH    9     180.0      0.12552     4  ; Amber99Sb-disp
 O   C   OS  CT    9     180.0      5.85760     1  ; Amber99Sb-disp
 O   C   OS  CT    9     180.0     11.29680     2  ; Amber99Sb-disp
 OH  CT  CT  OH    9       0.0      0.60250     3  ; Amber99Sb-disp
 OH  CT  CT  OH    9       0.0      4.91620     2  ; Amber99Sb-disp
 OH  P   OS  CT    9       0.0      1.04600     3  ; Amber99Sb-disp
 OH  P   OS  CT    9       0.0      5.02080     2  ; Amber99Sb-disp
 OS  CT  CT  OH    9       0.0      0.60250     3  ; Amber99Sb-disp
 OS  CT  CT  OH    9       0.0      4.91620     2  ; Amber99Sb-disp
 OS  CT  CT  OS    9       0.0      4.91620     2  ; Amber99Sb-disp
 OS  CT  CT  OS    9       0.0      0.60250     3  ; Amber99Sb-disp
 OS  CT  N*  CK    9       0.0     10.46000     1  ; Amber99Sb-disp
 OS  CT  N*  CM    9       0.0     10.46000     1  ; Amber99Sb-disp
 OS  P   OS  CT    9       0.0      5.02080     2  ; Amber99Sb-disp
 OS  P   OS  CT    9       0.0      1.04600     3  ; Amber99Sb-disp
 N   CT  CT  CA    9       0.0      0.00000     0  ; Amber99Sb-disp
 N   CT  CT  C*    9       0.0      0.00000     0  ; Amber99Sb-disp
 CT  CT  C9  S     9       0.0      0.00000     0  ; Amber99Sb-disp
 CT  CT  C9  CT    9       0.0      0.00000     0  ; Amber99Sb-disp
 X   C1  N3  X     9       0.0      0.65084     3  ; Amber99Sb-disp
 X   C5  N   X     9     180.0     10.46000     2  ; Amber99Sb-disp
 X   C7  CT  X     9       0.0      0.65084     3  ; Amber99Sb-disp
 X   C7  N3  X     9       0.0      0.65084     3  ; Amber99Sb-disp
 X   C8  O3  X     9       0.0      0.69873     3  ; Amber99Sb-disp
 X   C8  OH  X     9       0.0      0.69873     3  ; Amber99Sb-disp
 X   C9  S   X     9       0.0      1.39327     3  ; Amber99Sb-disp
 X   CA  CA  X     9     180.0     15.16700     2  ; Amber99Sb-disp
 X   CA  CB  X     9     180.0     14.64400     2  ; Amber99Sb-disp
 X   CA  CM  X     9     180.0     10.66920     2  ; Amber99Sb-disp
 X   CA  CN  X     9     180.0     15.16700     2  ; Amber99Sb-disp
 X   CA  N2  X     9     180.0     10.04160     2  ; Amber99Sb-disp
 X   CA  NA  X     9     180.0      6.27600     2  ; Amber99Sb-disp
 X   CA  NC  X     9     180.0     20.08320     2  ; Amber99Sb-disp
 X   CA  OH  X     9     180.0      3.76560     2  ; Amber99Sb-disp
 X   CB  CB  X     9     180.0     22.80280     2  ; Amber99Sb-disp
 X   CB  CN  X     9     180.0     12.55200     2  ; Amber99Sb-disp
 X   CB  NB  X     9     180.0     10.66920     2  ; Amber99Sb-disp
 X   CB  NC  X     9     180.0     17.36360     2  ; Amber99Sb-disp
 X   CB  N*  X     9     180.0      6.90360     2  ; Amber99Sb-disp
 X   C   CA  X     9     180.0     15.16700     2  ; Amber99Sb-disp
 X   C   CB  X     9     180.0     12.55200     2  ; Amber99Sb-disp
 X   C*  CB  X     9     180.0      7.00820     2  ; Amber99Sb-disp
 X   CC  CV  X     9     180.0     21.54760     2  ; Amber99Sb-disp
 X   CC  CW  X     9     180.0     22.48900     2  ; Amber99Sb-disp
 X   C   CM  X     9     180.0      9.10020     2  ; Amber99Sb-disp
 X   CC  NA  X     9     180.0      5.85760     2  ; Amber99Sb-disp
 X   CC  NB  X     9     180.0     10.04160     2  ; Amber99Sb-disp
 X   C*  CW  X     9     180.0     27.30060     2  ; Amber99Sb-disp
 X   C   C   X     9     180.0     15.16700     2  ; Amber99Sb-disp
 X   CK  NB  X     9     180.0     41.84000     2  ; Amber99Sb-disp
 X   CK  N*  X     9     180.0      7.11280     2  ; Amber99Sb-disp
 X   CM  CM  X     9     180.0     27.82360     2  ; Amber99Sb-disp
 X   CM  N*  X     9     180.0      7.74040     2  ; Amber99Sb-disp
 X   CM  OS  X     9     180.0      4.39320     2  ; Amber99Sb-disp
 X   C   NA  X     9     180.0      5.64840     2  ; Amber99Sb-disp
 X   C   NC  X     9     180.0     16.73600     2  ; Amber99Sb-disp
 X   CN  NA  X     9     180.0      6.38060     2  ; Amber99Sb-disp
 X   C   N   X     9     180.0     10.46000     2  ; Amber99Sb-disp
 X   C   N*  X     9     180.0      6.06680     2  ; Amber99Sb-disp
 X   C   OH  X     9     180.0      9.62320     2  ; Amber99Sb-disp
 X   C   OS  X     9     180.0     11.29680     2  ; Amber99Sb-disp
 X   C   O   X     9     180.0     11.71520     2  ; Amber99Sb-disp
 X   C   OB  X     9     180.0     11.71520     2  ; Amber99Sb-disp
 X   CQ  NC  X     9     180.0     28.45120     2  ; Amber99Sb-disp
 X   CR  NA  X     9     180.0      9.72780     2  ; Amber99Sb-disp
 X   CR  NB  X     9     180.0     20.92000     2  ; Amber99Sb-disp
 X   CT  C8  X     9       0.0      0.64852     3  ; Amber99Sb-disp
 X   CT  C9  X     9       0.0      0.64852     3  ; Amber99Sb-disp
 X   CT  CT  X     9       0.0      0.65084     3  ; Amber99Sb-disp
 X   CT  N3  X     9       0.0      0.65084     3  ; Amber99Sb-disp
 X   CT  OH  X     9       0.0      0.69733     3  ; Amber99Sb-disp
 X   CT  OS  X     9       0.0      1.60387     3  ; Amber99Sb-disp
 X   CT  SH  X     9       0.0      1.04600     3  ; Amber99Sb-disp
 X   CT  S   X     9       0.0      1.39467     3  ; Amber99Sb-disp
 X   CV  NB  X     9     180.0     10.04160     2  ; Amber99Sb-disp
 X   CW  NA  X     9     180.0      6.27600     2  ; Amber99Sb-disp
 X   OH  P   X     9       0.0      1.04600     3  ; Amber99Sb-disp
 X   OS  P   X     9       0.0      1.04600     3  ; Amber99Sb-disp
 X   C1  N   X     9       0.0      0.00000     0  ; Amber99Sb-disp
 X   C   C1  X     9       0.0      0.00000     0  ; Amber99Sb-disp
 X   C   C9  X     9       0.0      0.00000     0  ; Amber99Sb-disp
 X   C   CT  X     9       0.0      0.00000     0  ; Amber99Sb-disp
 X   CA  CT  X     9       0.0      0.00000     0  ; Amber99Sb-disp
 X   CC  CT  X     9       0.0      0.00000     0  ; Amber99Sb-disp
 X   CM  CT  X     9       0.0      0.00000     0  ; Amber99Sb-disp
 X   CT  N   X     9       0.0      0.00000     0  ; Amber99Sb-disp
 X   CT  N*  X     9       0.0      0.00000     0  ; Amber99Sb-disp
 X   CT  N2  X     9       0.0      0.00000     0  ; Amber99Sb-disp
 X   C*  CT  X     9       0.0      0.00000     0  ; Amber99Sb-disp
 X   C7  N   X     9       0.0      0.00000     0  ; Amber99Sb-disp
 X   C   C7  X     9       0.0      0.00000     0  ; Amber99Sb-disp
 X   C5  CT  X     9       0.0      0.00000     0  ; Amber99Sb-disp
 X   C6  CT  X     9       0.0      0.00000     0  ; Amber99Sb-disp
; L47_GMX.top created by acpype (v: 2022.1.3) on Wed Jun  8 14:36:52 2022
; nbfunc        comb-rule       gen-pairs       fudgeLJ fudgeQQ
;1               2               yes             0.5     0.8333

[ moleculetype ]
; Name            nrexcl
Protein_chain_A     3

[ atoms ]
     1        sN3    121   NASP      N      1   0.063850     14.010
     2         sH    121   NASP     H1      2   0.179629      1.008
     3         sH    121   NASP     H2      3   0.179629      1.008
     4         sH    121   NASP     H3      4   0.179629      1.008
     5        sCT    121   NASP     CA      5   0.023842     12.010
     6        sHP    121   NASP     HA      6   0.093162      1.008
     7        sCT    121   NASP     CB      7  -0.019188     12.010
     8        sHC    121   NASP    HB1      8  -0.013799      1.008
     9        sHC    121   NASP    HB2      9  -0.013799      1.008
    10        sC6    121   NASP     CG     10   0.669037     12.010
    11        sO2    121   NASP    OD1     11  -0.660056     16.000
    12        sO2    121   NASP    OD2     12  -0.660056     16.000
    13         sC    121   NASP      C     13   0.458953     12.010
    14        sOB    121   NASP      O     14  -0.480835     16.000
    15         sN    122    ASN      N     15  -0.339418     14.010
    16        sHB    122    ASN      H     16   0.222005      1.008
    17        sCT    122    ASN     CA     17   0.011676     12.010
    18        sH1    122    ASN     HA     18   0.085569      1.008
    19        sCT    122    ASN     CB     19  -0.166647     12.010
    20        sHC    122    ASN    HB1     20   0.065075      1.008
    21        sHC    122    ASN    HB2     21   0.065075      1.008
    22        sC5    122    ASN     CG     22   0.582162     12.010
    23         sO    122    ASN    OD1     23  -0.484264     16.000
    24         sN    122    ASN    ND2     24  -0.750442     14.010
    25         sH    122    ASN   HD21     25   0.342602      1.008
    26         sH    122    ASN   HD22     26   0.342602      1.008
    27         sC    122    ASN      C     27   0.487693     12.010
    28        sOB    122    ASN      O     28  -0.463688     16.000
    29         sN    123    GLU      N     29  -0.339418     14.010
    30        sHB    123    GLU      H     30   0.222005      1.008
    31        sCT    123    GLU     CA     31  -0.185821     12.010
    32        sH1    123    GLU     HA     32   0.126185      1.008
    33        sCT    123    GLU     CB     33   0.094722     12.010
    34        sHC    123    GLU    HB1     34  -0.005076      1.008
    35        sHC    123    GLU    HB2     35  -0.005076      1.008
    36        sC9    123    GLU     CG     36  -0.066785     12.010
    37        sHC    123    GLU    HG1     37  -0.005025      1.008
    38        sHC    123    GLU    HG2     38  -0.005025      1.008
    39         sC    123    GLU     CD     39   0.594911     12.010
    40        sO2    123    GLU    OE1     40  -0.633050     16.000
    41        sO2    123    GLU    OE2     41  -0.633050     16.000
    42         sC    123    GLU      C     42   0.487693     12.010
    43        sOB    123    GLU      O     43  -0.463688     16.000
    44         sN    124    ALA      N     44  -0.339418     14.010
    45        sHB    124    ALA      H     45   0.222005      1.008
    46        sCT    124    ALA     CA     46   0.027516     12.010
    47        sH1    124    ALA     HA     47   0.067198      1.008
    48        sCT    124    ALA     CB     48  -0.149011     12.010
    49        sHC    124    ALA    HB1     49   0.049235      1.008
    50        sHC    124    ALA    HB2     50   0.049235      1.008
    51        sHC    124    ALA    HB3     51   0.049235      1.008
    52         sC    124    ALA      C     52   0.487693     12.010
    53        sOB    124    ALA      O     53  -0.463688     16.000
    54         sN    125    TYR      N     54  -0.339418     14.010
    55        sHB    125    TYR      H     55   0.222005      1.008
    56        sCT    125    TYR     CA     56  -0.001143     12.010
    57        sH1    125    TYR     HA     57   0.071525      1.008
    58        sCT    125    TYR     CB     58  -0.012411     12.010
    59        sHC    125    TYR    HB1     59   0.024087      1.008
    60        sHC    125    TYR    HB2     60   0.024087      1.008
    61        sCA    125    TYR     CG     61  -0.000898     12.010
    62        sCA    125    TYR    CD1     62  -0.155624     12.010
    63        sHA    125    TYR    HD1     63   0.138723      1.008
    64        sCA    125    TYR    CE1     64  -0.191142     12.010
    65        sHA    125    TYR    HE1     65   0.135212      1.008
    66         sC    125    TYR     CZ     66   0.263402     12.010
    67        sOH    125    TYR     OH     67  -0.455523     16.000
    68        sHO    125    TYR     HH     68   0.325945      1.008
    69        sCA    125    TYR    CE2     69  -0.191142     12.010
    70        sHA    125    TYR    HE2     70   0.135212      1.008
    71        sCA    125    TYR    CD2     71  -0.155624     12.010
    72        sHA    125    TYR    HD2     72   0.138723      1.008
    73         sC    125    TYR      C     73   0.487693     12.010
    74        sOB    125    TYR      O     74  -0.463688     16.000
    75         sN    126    GLU      N     75  -0.339418     14.010
    76        sHB    126    GLU      H     76   0.222005      1.008
    77        sCT    126    GLU     CA     77  -0.185821     12.010
    78        sH1    126    GLU     HA     78   0.126185      1.008
    79        sCT    126    GLU     CB     79   0.094722     12.010
    80        sHC    126    GLU    HB1     80  -0.005076      1.008
    81        sHC    126    GLU    HB2     81  -0.005076      1.008
    82        sC9    126    GLU     CG     82  -0.066785     12.010
    83        sHC    126    GLU    HG1     83  -0.005025      1.008
    84        sHC    126    GLU    HG2     84  -0.005025      1.008
    85         sC    126    GLU     CD     85   0.594911     12.010
    86        sO2    126    GLU    OE1     86  -0.633050     16.000
    87        sO2    126    GLU    OE2     87  -0.633050     16.000
    88         sC    126    GLU      C     88   0.487693     12.010
    89        sOB    126    GLU      O     89  -0.463688     16.000
    90         sN    127    MET      N     90  -0.339418     14.010
    91        sHB    127    MET      H     91   0.222005      1.008
    92        sCT    127    MET     CA     92  -0.019351     12.010
    93        sH1    127    MET     HA     93   0.071852      1.008
    94        sCT    127    MET     CB     94   0.027924     12.010
    95        sHC    127    MET    HB1     95   0.019678      1.008
    96        sHC    127    MET    HB2     96   0.019678      1.008
    97        sC9    127    MET     CG     97   0.001470     12.010
    98        sH1    127    MET    HG1     98   0.035926      1.008
    99        sH1    127    MET    HG2     99   0.035926      1.008
   100         sS    127    MET     SD    100  -0.223475     32.060
   101        sCT    127    MET     CE    101  -0.043764     12.010
   102        sH1    127    MET    HE1    102   0.055848      1.008
   103        sH1    127    MET    HE2    103   0.055848      1.008
   104        sH1    127    MET    HE3    104   0.055848      1.008
   105         sC    127    MET      C    105   0.487693     12.010
   106        sOB    127    MET      O    106  -0.463688     16.000
   107         sN    128    PRO      N    107  -0.208043     14.010
   108        sCT    128    PRO     CD    108   0.015677     12.010
   109        sH1    128    PRO    HD1    109   0.031925      1.008
   110        sH1    128    PRO    HD2    110   0.031925      1.008
   111        sCT    128    PRO     CG    111   0.015432     12.010
   112        sHC    128    PRO    HG1    112   0.017391      1.008
   113        sHC    128    PRO    HG2    113   0.017391      1.008
   114        sCT    128    PRO     CB    114  -0.005715     12.010
   115        sHC    128    PRO    HB1    115   0.020657      1.008
   116        sHC    128    PRO    HB2    116   0.020657      1.008
   117        sC7    128    PRO     CA    117  -0.021719     12.010
   118        sH1    128    PRO     HA    118   0.052337      1.008
   119         sC    128    PRO      C    119   0.481406     12.010
   120        sOB    128    PRO      O    120  -0.469322     16.000
   121         sN    129    SER      N    121  -0.339418     14.010
   122        sHB    129    SER      H    122   0.222005      1.008
   123        sCT    129    SER     CA    123  -0.020331     12.010
   124        sH1    129    SER     HA    124   0.068831      1.008
   125        sC8    129    SER     CB    125   0.172852     12.010
   126        sH1    129    SER    HB1    126   0.028741      1.008
   127        sH1    129    SER    HB2    127   0.028741      1.008
   128        sOH    129    SER     OG    128  -0.534479     16.000
   129        sHO    129    SER    HG1    129   0.349052      1.008
   130         sC    129    SER      C    130   0.487693     12.010
   131        sOB    129    SER      O    131  -0.463688     16.000
   132         sN    130    GLU      N    132  -0.339418     14.010
   133        sHB    130    GLU      H    133   0.222005      1.008
   134        sCT    130    GLU     CA    134  -0.185821     12.010
   135        sH1    130    GLU     HA    135   0.126185      1.008
   136        sCT    130    GLU     CB    136   0.094722     12.010
   137        sHC    130    GLU    HB1    137  -0.005076      1.008
   138        sHC    130    GLU    HB2    138  -0.005076      1.008
   139        sC9    130    GLU     CG    139  -0.066785     12.010
   140        sHC    130    GLU    HG1    140  -0.005025      1.008
   141        sHC    130    GLU    HG2    141  -0.005025      1.008
   142         sC    130    GLU     CD    142   0.594911     12.010
   143        sO2    130    GLU    OE1    143  -0.633050     16.000
   144        sO2    130    GLU    OE2    144  -0.633050     16.000
   145         sC    130    GLU      C    145   0.487693     12.010
   146        sOB    130    GLU      O    146  -0.463688     16.000
   147         sN    131    GLU      N    147  -0.339418     14.010
   148        sHB    131    GLU      H    148   0.222005      1.008
   149        sCT    131    GLU     CA    149  -0.185821     12.010
   150        sH1    131    GLU     HA    150   0.126185      1.008
   151        sCT    131    GLU     CB    151   0.094722     12.010
   152        sHC    131    GLU    HB1    152  -0.005076      1.008
   153        sHC    131    GLU    HB2    153  -0.005076      1.008
   154        sC9    131    GLU     CG    154  -0.066785     12.010
   155        sHC    131    GLU    HG1    155  -0.005025      1.008
   156        sHC    131    GLU    HG2    156  -0.005025      1.008
   157         sC    131    GLU     CD    157   0.594911     12.010
   158        sO2    131    GLU    OE1    158  -0.633050     16.000
   159        sO2    131    GLU    OE2    159  -0.633050     16.000
   160         sC    131    GLU      C    160   0.487693     12.010
   161        sOB    131    GLU      O    161  -0.463688     16.000
   162         sN    132    GLY      N    162  -0.339418     14.010
   163        sHB    132    GLY      H    163   0.222005      1.008
   164        sC1    132    GLY     CA    164  -0.020576     12.010
   165        sH1    132    GLY    HA1    165   0.056991      1.008
   166        sH1    132    GLY    HA2    166   0.056991      1.008
   167         sC    132    GLY      C    167   0.487693     12.010
   168        sOB    132    GLY      O    168  -0.463688     16.000
   169         sN    133    TYR      N    169  -0.339418     14.010
   170        sHB    133    TYR      H    170   0.222005      1.008
   171        sCT    133    TYR     CA    171  -0.001143     12.010
   172        sH1    133    TYR     HA    172   0.071525      1.008
   173        sCT    133    TYR     CB    173  -0.012411     12.010
   174        sHC    133    TYR    HB1    174   0.024087      1.008
   175        sHC    133    TYR    HB2    175   0.024087      1.008
   176        sCA    133    TYR     CG    176  -0.000898     12.010
   177        sCA    133    TYR    CD1    177  -0.155624     12.010
   178        sHA    133    TYR    HD1    178   0.138723      1.008
   179        sCA    133    TYR    CE1    179  -0.191142     12.010
   180        sHA    133    TYR    HE1    180   0.135212      1.008
   181         sC    133    TYR     CZ    181   0.263402     12.010
   182        sOH    133    TYR     OH    182  -0.455523     16.000
   183        sHO    133    TYR     HH    183   0.325945      1.008
   184        sCA    133    TYR    CE2    184  -0.191142     12.010
   185        sHA    133    TYR    HE2    185   0.135212      1.008
   186        sCA    133    TYR    CD2    186  -0.155624     12.010
   187        sHA    133    TYR    HD2    187   0.138723      1.008
   188         sC    133    TYR      C    188   0.487693     12.010
   189        sOB    133    TYR      O    189  -0.463688     16.000
   190         sN    134    GLN      N    190  -0.339418     14.010
   191        sHB    134    GLN      H    191   0.222005      1.008
   192        sCT    134    GLN     CA    192  -0.002531     12.010
   193        sH1    134    GLN     HA    193   0.069402      1.008
   194        sCT    134    GLN     CB    194  -0.002939     12.010
   195        sHC    134    GLN    HB1    195   0.013962      1.008
   196        sHC    134    GLN    HB2    196   0.013962      1.008
   197        sC9    134    GLN     CG    197  -0.052664     12.010
   198        sHC    134    GLN    HG1    198   0.028741      1.008
   199        sHC    134    GLN    HG2    199   0.028741      1.008
   200         sC    134    GLN     CD    200   0.567547     12.010
   201         sO    134    GLN    OE1    201  -0.496920     16.000
   202         sN    134    GLN    NE2    202  -0.768078     14.010
   203         sH    134    GLN   HE21    203   0.347093      1.008
   204         sH    134    GLN   HE22    204   0.347093      1.008
   205         sC    134    GLN      C    205   0.487693     12.010
   206        sOB    134    GLN      O    206  -0.463688     16.000
   207         sN    135    ASP      N    207  -0.339418     14.010
   208        sHB    135    ASP      H    208   0.222005      1.008
   209        sCT    135    ASP     CA    209  -0.183356     12.010
   210        sH1    135    ASP     HA    210   0.119366      1.008
   211        sCT    135    ASP     CB    211   0.002917     12.010
   212        sHC    135    ASP    HB1    212  -0.012720      1.008
   213        sHC    135    ASP    HB2    213  -0.012720      1.008
   214        sC6    135    ASP     CG    214   0.622878     12.010
   215        sO2    135    ASP    OD1    215  -0.629727     16.000
   216        sO2    135    ASP    OD2    216  -0.629727     16.000
   217         sC    135    ASP      C    217   0.487693     12.010
   218        sOB    135    ASP      O    218  -0.463688     16.000
   219         sN    136    TYR      N    219  -0.339418     14.010
   220        sHB    136    TYR      H    220   0.222005      1.008
   221        sCT    136    TYR     CA    221  -0.001143     12.010
   222        sH1    136    TYR     HA    222   0.071525      1.008
   223        sCT    136    TYR     CB    223  -0.012411     12.010
   224        sHC    136    TYR    HB1    224   0.024087      1.008
   225        sHC    136    TYR    HB2    225   0.024087      1.008
   226        sCA    136    TYR     CG    226  -0.000898     12.010
   227        sCA    136    TYR    CD1    227  -0.155624     12.010
   228        sHA    136    TYR    HD1    228   0.138723      1.008
   229        sCA    136    TYR    CE1    229  -0.191142     12.010
   230        sHA    136    TYR    HE1    230   0.135212      1.008
   231         sC    136    TYR     CZ    231   0.263402     12.010
   232        sOH    136    TYR     OH    232  -0.455523     16.000
   233        sHO    136    TYR     HH    233   0.325945      1.008
   234        sCA    136    TYR    CE2    234  -0.191142     12.010
   235        sHA    136    TYR    HE2    235   0.135212      1.008
   236        sCA    136    TYR    CD2    236  -0.155624     12.010
   237        sHA    136    TYR    HD2    237   0.138723      1.008
   238         sC    136    TYR      C    238   0.487693     12.010
   239        sOB    136    TYR      O    239  -0.463688     16.000
   240         sN    137    GLU      N    240  -0.339418     14.010
   241        sHB    137    GLU      H    241   0.222005      1.008
   242        sCT    137    GLU     CA    242  -0.185821     12.010
   243        sH1    137    GLU     HA    243   0.126185      1.008
   244        sCT    137    GLU     CB    244   0.094722     12.010
   245        sHC    137    GLU    HB1    245  -0.005076      1.008
   246        sHC    137    GLU    HB2    246  -0.005076      1.008
   247        sC9    137    GLU     CG    247  -0.066785     12.010
   248        sHC    137    GLU    HG1    248  -0.005025      1.008
   249        sHC    137    GLU    HG2    249  -0.005025      1.008
   250         sC    137    GLU     CD    250   0.594911     12.010
   251        sO2    137    GLU    OE1    251  -0.633050     16.000
   252        sO2    137    GLU    OE2    252  -0.633050     16.000
   253         sC    137    GLU      C    253   0.487693     12.010
   254        sOB    137    GLU      O    254  -0.463688     16.000
   255         sN    138    PRO      N    255  -0.208043     14.010
   256        sCT    138    PRO     CD    256   0.015677     12.010
   257        sH1    138    PRO    HD1    257   0.031925      1.008
   258        sH1    138    PRO    HD2    258   0.031925      1.008
   259        sCT    138    PRO     CG    259   0.015432     12.010
   260        sHC    138    PRO    HG1    260   0.017391      1.008
   261        sHC    138    PRO    HG2    261   0.017391      1.008
   262        sCT    138    PRO     CB    262  -0.005715     12.010
   263        sHC    138    PRO    HB1    263   0.020657      1.008
   264        sHC    138    PRO    HB2    264   0.020657      1.008
   265        sC7    138    PRO     CA    265  -0.021719     12.010
   266        sH1    138    PRO     HA    266   0.052337      1.008
   267         sC    138    PRO      C    267   0.481406     12.010
   268        sOB    138    PRO      O    268  -0.469322     16.000
   269         sN    139    GLU      N    269  -0.339418     14.010
   270        sHB    139    GLU      H    270   0.222005      1.008
   271        sCT    139    GLU     CA    271  -0.185821     12.010
   272        sH1    139    GLU     HA    272   0.126185      1.008
   273        sCT    139    GLU     CB    273   0.094722     12.010
   274        sHC    139    GLU    HB1    274  -0.005076      1.008
   275        sHC    139    GLU    HB2    275  -0.005076      1.008
   276        sC9    139    GLU     CG    276  -0.066785     12.010
   277        sHC    139    GLU    HG1    277  -0.005025      1.008
   278        sHC    139    GLU    HG2    278  -0.005025      1.008
   279         sC    139    GLU     CD    279   0.594911     12.010
   280        sO2    139    GLU    OE1    280  -0.633050     16.000
   281        sO2    139    GLU    OE2    281  -0.633050     16.000
   282         sC    139    GLU      C    282   0.487693     12.010
   283        sOB    139    GLU      O    283  -0.463688     16.000
   284         sN    140   CALA      N    284  -0.311983     14.010
   285        sHB    140   CALA      H    285   0.218903      1.008
   286        sCT    140   CALA     CA    286  -0.142642     12.010
   287        sH1    140   CALA     HA    287   0.087120      1.008
   288        sCT    140   CALA     CB    288  -0.170893     12.010
   289        sHC    140   CALA    HB1    289   0.062380      1.008
   290        sHC    140   CALA    HB2    290   0.062380      1.008
   291        sHC    140   CALA    HB3    291   0.062380      1.008
   292         sC    140   CALA      C    292   0.631234     12.010
   293        sO2    140   CALA    OC1    293  -0.657688     16.000
   294        sO2    140   CALA    OC2    294  -0.657688     16.000

[ bonds ]
    1     2     1
    1     3     1
    1     4     1
    1     5     1
    5     6     1
    5     7     1
    5    13     1
    7     8     1
    7     9     1
    7    10     1
   10    11     1
   10    12     1
   13    14     1
   13    15     1
   15    16     1
   15    17     1
   17    18     1
   17    19     1
   17    27     1
   19    20     1
   19    21     1
   19    22     1
   22    23     1
   22    24     1
   24    25     1
   24    26     1
   27    28     1
   27    29     1
   29    30     1
   29    31     1
   31    32     1
   31    33     1
   31    42     1
   33    34     1
   33    35     1
   33    36     1
   36    37     1
   36    38     1
   36    39     1
   39    40     1
   39    41     1
   42    43     1
   42    44     1
   44    45     1
   44    46     1
   46    47     1
   46    48     1
   46    52     1
   48    49     1
   48    50     1
   48    51     1
   52    53     1
   52    54     1
   54    55     1
   54    56     1
   56    57     1
   56    58     1
   56    73     1
   58    59     1
   58    60     1
   58    61     1
   61    62     1
   61    71     1
   62    63     1
   62    64     1
   64    65     1
   64    66     1
   66    67     1
   66    69     1
   67    68     1
   69    70     1
   69    71     1
   71    72     1
   73    74     1
   73    75     1
   75    76     1
   75    77     1
   77    78     1
   77    79     1
   77    88     1
   79    80     1
   79    81     1
   79    82     1
   82    83     1
   82    84     1
   82    85     1
   85    86     1
   85    87     1
   88    89     1
   88    90     1
   90    91     1
   90    92     1
   92    93     1
   92    94     1
   92   105     1
   94    95     1
   94    96     1
   94    97     1
   97    98     1
   97    99     1
   97   100     1
  100   101     1
  101   102     1
  101   103     1
  101   104     1
  105   106     1
  105   107     1
  107   108     1
  107   117     1
  108   109     1
  108   110     1
  108   111     1
  111   112     1
  111   113     1
  111   114     1
  114   115     1
  114   116     1
  114   117     1
  117   118     1
  117   119     1
  119   120     1
  119   121     1
  121   122     1
  121   123     1
  123   124     1
  123   125     1
  123   130     1
  125   126     1
  125   127     1
  125   128     1
  128   129     1
  130   131     1
  130   132     1
  132   133     1
  132   134     1
  134   135     1
  134   136     1
  134   145     1
  136   137     1
  136   138     1
  136   139     1
  139   140     1
  139   141     1
  139   142     1
  142   143     1
  142   144     1
  145   146     1
  145   147     1
  147   148     1
  147   149     1
  149   150     1
  149   151     1
  149   160     1
  151   152     1
  151   153     1
  151   154     1
  154   155     1
  154   156     1
  154   157     1
  157   158     1
  157   159     1
  160   161     1
  160   162     1
  162   163     1
  162   164     1
  164   165     1
  164   166     1
  164   167     1
  167   168     1
  167   169     1
  169   170     1
  169   171     1
  171   172     1
  171   173     1
  171   188     1
  173   174     1
  173   175     1
  173   176     1
  176   177     1
  176   186     1
  177   178     1
  177   179     1
  179   180     1
  179   181     1
  181   182     1
  181   184     1
  182   183     1
  184   185     1
  184   186     1
  186   187     1
  188   189     1
  188   190     1
  190   191     1
  190   192     1
  192   193     1
  192   194     1
  192   205     1
  194   195     1
  194   196     1
  194   197     1
  197   198     1
  197   199     1
  197   200     1
  200   201     1
  200   202     1
  202   203     1
  202   204     1
  205   206     1
  205   207     1
  207   208     1
  207   209     1
  209   210     1
  209   211     1
  209   217     1
  211   212     1
  211   213     1
  211   214     1
  214   215     1
  214   216     1
  217   218     1
  217   219     1
  219   220     1
  219   221     1
  221   222     1
  221   223     1
  221   238     1
  223   224     1
  223   225     1
  223   226     1
  226   227     1
  226   236     1
  227   228     1
  227   229     1
  229   230     1
  229   231     1
  231   232     1
  231   234     1
  232   233     1
  234   235     1
  234   236     1
  236   237     1
  238   239     1
  238   240     1
  240   241     1
  240   242     1
  242   243     1
  242   244     1
  242   253     1
  244   245     1
  244   246     1
  244   247     1
  247   248     1
  247   249     1
  247   250     1
  250   251     1
  250   252     1
  253   254     1
  253   255     1
  255   256     1
  255   265     1
  256   257     1
  256   258     1
  256   259     1
  259   260     1
  259   261     1
  259   262     1
  262   263     1
  262   264     1
  262   265     1
  265   266     1
  265   267     1
  267   268     1
  267   269     1
  269   270     1
  269   271     1
  271   272     1
  271   273     1
  271   282     1
  273   274     1
  273   275     1
  273   276     1
  276   277     1
  276   278     1
  276   279     1
  279   280     1
  279   281     1
  282   283     1
  282   284     1
  284   285     1
  284   286     1
  286   287     1
  286   288     1
  286   292     1
  288   289     1
  288   290     1
  288   291     1
  292   293     1
  292   294     1


[ pairs ]
    1     8     1
    1     9     1
    1    10     1
    1    14     1
    1    15     1
    2     6     1
    2     7     1
    2    13     1
    3     6     1
    3     7     1
    3    13     1
    4     6     1
    4     7     1
    4    13     1
    5    11     1
    5    12     1
    5    16     1
    5    17     1
    6     8     1
    6     9     1
    6    10     1
    6    14     1
    6    15     1
    7    14     1
    7    15     1
    8    11     1
    8    12     1
    8    13     1
    9    11     1
    9    12     1
    9    13     1
   10    13     1
   13    18     1
   13    19     1
   13    27     1
   14    16     1
   14    17     1
   15    20     1
   15    21     1
   15    22     1
   15    28     1
   15    29     1
   16    18     1
   16    19     1
   16    27     1
   17    23     1
   17    24     1
   17    30     1
   17    31     1
   18    20     1
   18    21     1
   18    22     1
   18    28     1
   18    29     1
   19    25     1
   19    26     1
   19    28     1
   19    29     1
   20    23     1
   20    24     1
   20    27     1
   21    23     1
   21    24     1
   21    27     1
   22    27     1
   23    25     1
   23    26     1
   27    32     1
   27    33     1
   27    42     1
   28    30     1
   28    31     1
   29    34     1
   29    35     1
   29    36     1
   29    43     1
   29    44     1
   30    32     1
   30    33     1
   30    42     1
   31    37     1
   31    38     1
   31    39     1
   31    45     1
   31    46     1
   32    34     1
   32    35     1
   32    36     1
   32    43     1
   32    44     1
   33    40     1
   33    41     1
   33    43     1
   33    44     1
   34    37     1
   34    38     1
   34    39     1
   34    42     1
   35    37     1
   35    38     1
   35    39     1
   35    42     1
   36    42     1
   37    40     1
   37    41     1
   38    40     1
   38    41     1
   42    47     1
   42    48     1
   42    52     1
   43    45     1
   43    46     1
   44    49     1
   44    50     1
   44    51     1
   44    53     1
   44    54     1
   45    47     1
   45    48     1
   45    52     1
   46    55     1
   46    56     1
   47    49     1
   47    50     1
   47    51     1
   47    53     1
   47    54     1
   48    53     1
   48    54     1
   49    52     1
   50    52     1
   51    52     1
   52    57     1
   52    58     1
   52    73     1
   53    55     1
   53    56     1
   54    59     1
   54    60     1
   54    61     1
   54    74     1
   54    75     1
   55    57     1
   55    58     1
   55    73     1
   56    62     1
   56    71     1
   56    76     1
   56    77     1
   57    59     1
   57    60     1
   57    61     1
   57    74     1
   57    75     1
   58    63     1
   58    64     1
   58    69     1
   58    72     1
   58    74     1
   58    75     1
   59    62     1
   59    71     1
   59    73     1
   60    62     1
   60    71     1
   60    73     1
   61    65     1
   61    66     1
   61    70     1
   61    73     1
   62    67     1
   62    69     1
   62    72     1
   63    65     1
   63    66     1
   63    71     1
   64    68     1
   64    70     1
   64    71     1
   65    67     1
   65    69     1
   66    72     1
   67    70     1
   67    71     1
   68    69     1
   70    72     1
   73    78     1
   73    79     1
   73    88     1
   74    76     1
   74    77     1
   75    80     1
   75    81     1
   75    82     1
   75    89     1
   75    90     1
   76    78     1
   76    79     1
   76    88     1
   77    83     1
   77    84     1
   77    85     1
   77    91     1
   77    92     1
   78    80     1
   78    81     1
   78    82     1
   78    89     1
   78    90     1
   79    86     1
   79    87     1
   79    89     1
   79    90     1
   80    83     1
   80    84     1
   80    85     1
   80    88     1
   81    83     1
   81    84     1
   81    85     1
   81    88     1
   82    88     1
   83    86     1
   83    87     1
   84    86     1
   84    87     1
   88    93     1
   88    94     1
   88   105     1
   89    91     1
   89    92     1
   90    95     1
   90    96     1
   90    97     1
   90   106     1
   90   107     1
   91    93     1
   91    94     1
   91   105     1
   92    98     1
   92    99     1
   92   100     1
   92   108     1
   92   117     1
   93    95     1
   93    96     1
   93    97     1
   93   106     1
   93   107     1
   94   101     1
   94   106     1
   94   107     1
   95    98     1
   95    99     1
   95   100     1
   95   105     1
   96    98     1
   96    99     1
   96   100     1
   96   105     1
   97   102     1
   97   103     1
   97   104     1
   97   105     1
   98   101     1
   99   101     1
  105   109     1
  105   110     1
  105   111     1
  105   114     1
  105   118     1
  105   119     1
  106   108     1
  106   117     1
  107   112     1
  107   113     1
  107   115     1
  107   116     1
  107   120     1
  107   121     1
  108   115     1
  108   116     1
  108   118     1
  108   119     1
  109   112     1
  109   113     1
  109   114     1
  109   117     1
  110   112     1
  110   113     1
  110   114     1
  110   117     1
  111   118     1
  111   119     1
  112   115     1
  112   116     1
  112   117     1
  113   115     1
  113   116     1
  113   117     1
  114   120     1
  114   121     1
  115   118     1
  115   119     1
  116   118     1
  116   119     1
  117   122     1
  117   123     1
  118   120     1
  118   121     1
  119   124     1
  119   125     1
  119   130     1
  120   122     1
  120   123     1
  121   126     1
  121   127     1
  121   128     1
  121   131     1
  121   132     1
  122   124     1
  122   125     1
  122   130     1
  123   129     1
  123   133     1
  123   134     1
  124   126     1
  124   127     1
  124   128     1
  124   131     1
  124   132     1
  125   131     1
  125   132     1
  126   129     1
  126   130     1
  127   129     1
  127   130     1
  128   130     1
  130   135     1
  130   136     1
  130   145     1
  131   133     1
  131   134     1
  132   137     1
  132   138     1
  132   139     1
  132   146     1
  132   147     1
  133   135     1
  133   136     1
  133   145     1
  134   140     1
  134   141     1
  134   142     1
  134   148     1
  134   149     1
  135   137     1
  135   138     1
  135   139     1
  135   146     1
  135   147     1
  136   143     1
  136   144     1
  136   146     1
  136   147     1
  137   140     1
  137   141     1
  137   142     1
  137   145     1
  138   140     1
  138   141     1
  138   142     1
  138   145     1
  139   145     1
  140   143     1
  140   144     1
  141   143     1
  141   144     1
  145   150     1
  145   151     1
  145   160     1
  146   148     1
  146   149     1
  147   152     1
  147   153     1
  147   154     1
  147   161     1
  147   162     1
  148   150     1
  148   151     1
  148   160     1
  149   155     1
  149   156     1
  149   157     1
  149   163     1
  149   164     1
  150   152     1
  150   153     1
  150   154     1
  150   161     1
  150   162     1
  151   158     1
  151   159     1
  151   161     1
  151   162     1
  152   155     1
  152   156     1
  152   157     1
  152   160     1
  153   155     1
  153   156     1
  153   157     1
  153   160     1
  154   160     1
  155   158     1
  155   159     1
  156   158     1
  156   159     1
  160   165     1
  160   166     1
  160   167     1
  161   163     1
  161   164     1
  162   168     1
  162   169     1
  163   165     1
  163   166     1
  163   167     1
  164   170     1
  164   171     1
  165   168     1
  165   169     1
  166   168     1
  166   169     1
  167   172     1
  167   173     1
  167   188     1
  168   170     1
  168   171     1
  169   174     1
  169   175     1
  169   176     1
  169   189     1
  169   190     1
  170   172     1
  170   173     1
  170   188     1
  171   177     1
  171   186     1
  171   191     1
  171   192     1
  172   174     1
  172   175     1
  172   176     1
  172   189     1
  172   190     1
  173   178     1
  173   179     1
  173   184     1
  173   187     1
  173   189     1
  173   190     1
  174   177     1
  174   186     1
  174   188     1
  175   177     1
  175   186     1
  175   188     1
  176   180     1
  176   181     1
  176   185     1
  176   188     1
  177   182     1
  177   184     1
  177   187     1
  178   180     1
  178   181     1
  178   186     1
  179   183     1
  179   185     1
  179   186     1
  180   182     1
  180   184     1
  181   187     1
  182   185     1
  182   186     1
  183   184     1
  185   187     1
  188   193     1
  188   194     1
  188   205     1
  189   191     1
  189   192     1
  190   195     1
  190   196     1
  190   197     1
  190   206     1
  190   207     1
  191   193     1
  191   194     1
  191   205     1
  192   198     1
  192   199     1
  192   200     1
  192   208     1
  192   209     1
  193   195     1
  193   196     1
  193   197     1
  193   206     1
  193   207     1
  194   201     1
  194   202     1
  194   206     1
  194   207     1
  195   198     1
  195   199     1
  195   200     1
  195   205     1
  196   198     1
  196   199     1
  196   200     1
  196   205     1
  197   203     1
  197   204     1
  197   205     1
  198   201     1
  198   202     1
  199   201     1
  199   202     1
  201   203     1
  201   204     1
  205   210     1
  205   211     1
  205   217     1
  206   208     1
  206   209     1
  207   212     1
  207   213     1
  207   214     1
  207   218     1
  207   219     1
  208   210     1
  208   211     1
  208   217     1
  209   215     1
  209   216     1
  209   220     1
  209   221     1
  210   212     1
  210   213     1
  210   214     1
  210   218     1
  210   219     1
  211   218     1
  211   219     1
  212   215     1
  212   216     1
  212   217     1
  213   215     1
  213   216     1
  213   217     1
  214   217     1
  217   222     1
  217   223     1
  217   238     1
  218   220     1
  218   221     1
  219   224     1
  219   225     1
  219   226     1
  219   239     1
  219   240     1
  220   222     1
  220   223     1
  220   238     1
  221   227     1
  221   236     1
  221   241     1
  221   242     1
  222   224     1
  222   225     1
  222   226     1
  222   239     1
  222   240     1
  223   228     1
  223   229     1
  223   234     1
  223   237     1
  223   239     1
  223   240     1
  224   227     1
  224   236     1
  224   238     1
  225   227     1
  225   236     1
  225   238     1
  226   230     1
  226   231     1
  226   235     1
  226   238     1
  227   232     1
  227   234     1
  227   237     1
  228   230     1
  228   231     1
  228   236     1
  229   233     1
  229   235     1
  229   236     1
  230   232     1
  230   234     1
  231   237     1
  232   235     1
  232   236     1
  233   234     1
  235   237     1
  238   243     1
  238   244     1
  238   253     1
  239   241     1
  239   242     1
  240   245     1
  240   246     1
  240   247     1
  240   254     1
  240   255     1
  241   243     1
  241   244     1
  241   253     1
  242   248     1
  242   249     1
  242   250     1
  242   256     1
  242   265     1
  243   245     1
  243   246     1
  243   247     1
  243   254     1
  243   255     1
  244   251     1
  244   252     1
  244   254     1
  244   255     1
  245   248     1
  245   249     1
  245   250     1
  245   253     1
  246   248     1
  246   249     1
  246   250     1
  246   253     1
  247   253     1
  248   251     1
  248   252     1
  249   251     1
  249   252     1
  253   257     1
  253   258     1
  253   259     1
  253   262     1
  253   266     1
  253   267     1
  254   256     1
  254   265     1
  255   260     1
  255   261     1
  255   263     1
  255   264     1
  255   268     1
  255   269     1
  256   263     1
  256   264     1
  256   266     1
  256   267     1
  257   260     1
  257   261     1
  257   262     1
  257   265     1
  258   260     1
  258   261     1
  258   262     1
  258   265     1
  259   266     1
  259   267     1
  260   263     1
  260   264     1
  260   265     1
  261   263     1
  261   264     1
  261   265     1
  262   268     1
  262   269     1
  263   266     1
  263   267     1
  264   266     1
  264   267     1
  265   270     1
  265   271     1
  266   268     1
  266   269     1
  267   272     1
  267   273     1
  267   282     1
  268   270     1
  268   271     1
  269   274     1
  269   275     1
  269   276     1
  269   283     1
  269   284     1
  270   272     1
  270   273     1
  270   282     1
  271   277     1
  271   278     1
  271   279     1
  271   285     1
  271   286     1
  272   274     1
  272   275     1
  272   276     1
  272   283     1
  272   284     1
  273   280     1
  273   281     1
  273   283     1
  273   284     1
  274   277     1
  274   278     1
  274   279     1
  274   282     1
  275   277     1
  275   278     1
  275   279     1
  275   282     1
  276   282     1
  277   280     1
  277   281     1
  278   280     1
  278   281     1
  282   287     1
  282   288     1
  282   292     1
  283   285     1
  283   286     1
  284   289     1
  284   290     1
  284   291     1
  284   293     1
  284   294     1
  285   287     1
  285   288     1
  285   292     1
  287   289     1
  287   290     1
  287   291     1
  287   293     1
  287   294     1
  288   293     1
  288   294     1
  289   292     1
  290   292     1
  291   292     1


[ angles ]
    2     1     3     1
    2     1     4     1
    2     1     5     1
    3     1     4     1
    3     1     5     1
    4     1     5     1
    1     5     6     1
    1     5     7     1
    1     5    13     1
    6     5     7     1
    6     5    13     1
    7     5    13     1
    5     7     8     1
    5     7     9     1
    5     7    10     1
    8     7     9     1
    8     7    10     1
    9     7    10     1
    7    10    11     1
    7    10    12     1
   11    10    12     1
    5    13    14     1
    5    13    15     1
   14    13    15     1
   13    15    16     1
   13    15    17     1
   16    15    17     1
   15    17    18     1
   15    17    19     1
   15    17    27     1
   18    17    19     1
   18    17    27     1
   19    17    27     1
   17    19    20     1
   17    19    21     1
   17    19    22     1
   20    19    21     1
   20    19    22     1
   21    19    22     1
   19    22    23     1
   19    22    24     1
   23    22    24     1
   22    24    25     1
   22    24    26     1
   25    24    26     1
   17    27    28     1
   17    27    29     1
   28    27    29     1
   27    29    30     1
   27    29    31     1
   30    29    31     1
   29    31    32     1
   29    31    33     1
   29    31    42     1
   32    31    33     1
   32    31    42     1
   33    31    42     1
   31    33    34     1
   31    33    35     1
   31    33    36     1
   34    33    35     1
   34    33    36     1
   35    33    36     1
   33    36    37     1
   33    36    38     1
   33    36    39     1
   37    36    38     1
   37    36    39     1
   38    36    39     1
   36    39    40     1
   36    39    41     1
   40    39    41     1
   31    42    43     1
   31    42    44     1
   43    42    44     1
   42    44    45     1
   42    44    46     1
   45    44    46     1
   44    46    47     1
   44    46    48     1
   44    46    52     1
   47    46    48     1
   47    46    52     1
   48    46    52     1
   46    48    49     1
   46    48    50     1
   46    48    51     1
   49    48    50     1
   49    48    51     1
   50    48    51     1
   46    52    53     1
   46    52    54     1
   53    52    54     1
   52    54    55     1
   52    54    56     1
   55    54    56     1
   54    56    57     1
   54    56    58     1
   54    56    73     1
   57    56    58     1
   57    56    73     1
   58    56    73     1
   56    58    59     1
   56    58    60     1
   56    58    61     1
   59    58    60     1
   59    58    61     1
   60    58    61     1
   58    61    62     1
   58    61    71     1
   62    61    71     1
   61    62    63     1
   61    62    64     1
   63    62    64     1
   62    64    65     1
   62    64    66     1
   65    64    66     1
   64    66    67     1
   64    66    69     1
   67    66    69     1
   66    67    68     1
   66    69    70     1
   66    69    71     1
   70    69    71     1
   61    71    69     1
   61    71    72     1
   69    71    72     1
   56    73    74     1
   56    73    75     1
   74    73    75     1
   73    75    76     1
   73    75    77     1
   76    75    77     1
   75    77    78     1
   75    77    79     1
   75    77    88     1
   78    77    79     1
   78    77    88     1
   79    77    88     1
   77    79    80     1
   77    79    81     1
   77    79    82     1
   80    79    81     1
   80    79    82     1
   81    79    82     1
   79    82    83     1
   79    82    84     1
   79    82    85     1
   83    82    84     1
   83    82    85     1
   84    82    85     1
   82    85    86     1
   82    85    87     1
   86    85    87     1
   77    88    89     1
   77    88    90     1
   89    88    90     1
   88    90    91     1
   88    90    92     1
   91    90    92     1
   90    92    93     1
   90    92    94     1
   90    92   105     1
   93    92    94     1
   93    92   105     1
   94    92   105     1
   92    94    95     1
   92    94    96     1
   92    94    97     1
   95    94    96     1
   95    94    97     1
   96    94    97     1
   94    97    98     1
   94    97    99     1
   94    97   100     1
   98    97    99     1
   98    97   100     1
   99    97   100     1
   97   100   101     1
  100   101   102     1
  100   101   103     1
  100   101   104     1
  102   101   103     1
  102   101   104     1
  103   101   104     1
   92   105   106     1
   92   105   107     1
  106   105   107     1
  105   107   108     1
  105   107   117     1
  108   107   117     1
  107   108   109     1
  107   108   110     1
  107   108   111     1
  109   108   110     1
  109   108   111     1
  110   108   111     1
  108   111   112     1
  108   111   113     1
  108   111   114     1
  112   111   113     1
  112   111   114     1
  113   111   114     1
  111   114   115     1
  111   114   116     1
  111   114   117     1
  115   114   116     1
  115   114   117     1
  116   114   117     1
  107   117   114     1
  107   117   118     1
  107   117   119     1
  114   117   118     1
  114   117   119     1
  118   117   119     1
  117   119   120     1
  117   119   121     1
  120   119   121     1
  119   121   122     1
  119   121   123     1
  122   121   123     1
  121   123   124     1
  121   123   125     1
  121   123   130     1
  124   123   125     1
  124   123   130     1
  125   123   130     1
  123   125   126     1
  123   125   127     1
  123   125   128     1
  126   125   127     1
  126   125   128     1
  127   125   128     1
  125   128   129     1
  123   130   131     1
  123   130   132     1
  131   130   132     1
  130   132   133     1
  130   132   134     1
  133   132   134     1
  132   134   135     1
  132   134   136     1
  132   134   145     1
  135   134   136     1
  135   134   145     1
  136   134   145     1
  134   136   137     1
  134   136   138     1
  134   136   139     1
  137   136   138     1
  137   136   139     1
  138   136   139     1
  136   139   140     1
  136   139   141     1
  136   139   142     1
  140   139   141     1
  140   139   142     1
  141   139   142     1
  139   142   143     1
  139   142   144     1
  143   142   144     1
  134   145   146     1
  134   145   147     1
  146   145   147     1
  145   147   148     1
  145   147   149     1
  148   147   149     1
  147   149   150     1
  147   149   151     1
  147   149   160     1
  150   149   151     1
  150   149   160     1
  151   149   160     1
  149   151   152     1
  149   151   153     1
  149   151   154     1
  152   151   153     1
  152   151   154     1
  153   151   154     1
  151   154   155     1
  151   154   156     1
  151   154   157     1
  155   154   156     1
  155   154   157     1
  156   154   157     1
  154   157   158     1
  154   157   159     1
  158   157   159     1
  149   160   161     1
  149   160   162     1
  161   160   162     1
  160   162   163     1
  160   162   164     1
  163   162   164     1
  162   164   165     1
  162   164   166     1
  162   164   167     1
  165   164   166     1
  165   164   167     1
  166   164   167     1
  164   167   168     1
  164   167   169     1
  168   167   169     1
  167   169   170     1
  167   169   171     1
  170   169   171     1
  169   171   172     1
  169   171   173     1
  169   171   188     1
  172   171   173     1
  172   171   188     1
  173   171   188     1
  171   173   174     1
  171   173   175     1
  171   173   176     1
  174   173   175     1
  174   173   176     1
  175   173   176     1
  173   176   177     1
  173   176   186     1
  177   176   186     1
  176   177   178     1
  176   177   179     1
  178   177   179     1
  177   179   180     1
  177   179   181     1
  180   179   181     1
  179   181   182     1
  179   181   184     1
  182   181   184     1
  181   182   183     1
  181   184   185     1
  181   184   186     1
  185   184   186     1
  176   186   184     1
  176   186   187     1
  184   186   187     1
  171   188   189     1
  171   188   190     1
  189   188   190     1
  188   190   191     1
  188   190   192     1
  191   190   192     1
  190   192   193     1
  190   192   194     1
  190   192   205     1
  193   192   194     1
  193   192   205     1
  194   192   205     1
  192   194   195     1
  192   194   196     1
  192   194   197     1
  195   194   196     1
  195   194   197     1
  196   194   197     1
  194   197   198     1
  194   197   199     1
  194   197   200     1
  198   197   199     1
  198   197   200     1
  199   197   200     1
  197   200   201     1
  197   200   202     1
  201   200   202     1
  200   202   203     1
  200   202   204     1
  203   202   204     1
  192   205   206     1
  192   205   207     1
  206   205   207     1
  205   207   208     1
  205   207   209     1
  208   207   209     1
  207   209   210     1
  207   209   211     1
  207   209   217     1
  210   209   211     1
  210   209   217     1
  211   209   217     1
  209   211   212     1
  209   211   213     1
  209   211   214     1
  212   211   213     1
  212   211   214     1
  213   211   214     1
  211   214   215     1
  211   214   216     1
  215   214   216     1
  209   217   218     1
  209   217   219     1
  218   217   219     1
  217   219   220     1
  217   219   221     1
  220   219   221     1
  219   221   222     1
  219   221   223     1
  219   221   238     1
  222   221   223     1
  222   221   238     1
  223   221   238     1
  221   223   224     1
  221   223   225     1
  221   223   226     1
  224   223   225     1
  224   223   226     1
  225   223   226     1
  223   226   227     1
  223   226   236     1
  227   226   236     1
  226   227   228     1
  226   227   229     1
  228   227   229     1
  227   229   230     1
  227   229   231     1
  230   229   231     1
  229   231   232     1
  229   231   234     1
  232   231   234     1
  231   232   233     1
  231   234   235     1
  231   234   236     1
  235   234   236     1
  226   236   234     1
  226   236   237     1
  234   236   237     1
  221   238   239     1
  221   238   240     1
  239   238   240     1
  238   240   241     1
  238   240   242     1
  241   240   242     1
  240   242   243     1
  240   242   244     1
  240   242   253     1
  243   242   244     1
  243   242   253     1
  244   242   253     1
  242   244   245     1
  242   244   246     1
  242   244   247     1
  245   244   246     1
  245   244   247     1
  246   244   247     1
  244   247   248     1
  244   247   249     1
  244   247   250     1
  248   247   249     1
  248   247   250     1
  249   247   250     1
  247   250   251     1
  247   250   252     1
  251   250   252     1
  242   253   254     1
  242   253   255     1
  254   253   255     1
  253   255   256     1
  253   255   265     1
  256   255   265     1
  255   256   257     1
  255   256   258     1
  255   256   259     1
  257   256   258     1
  257   256   259     1
  258   256   259     1
  256   259   260     1
  256   259   261     1
  256   259   262     1
  260   259   261     1
  260   259   262     1
  261   259   262     1
  259   262   263     1
  259   262   264     1
  259   262   265     1
  263   262   264     1
  263   262   265     1
  264   262   265     1
  255   265   262     1
  255   265   266     1
  255   265   267     1
  262   265   266     1
  262   265   267     1
  266   265   267     1
  265   267   268     1
  265   267   269     1
  268   267   269     1
  267   269   270     1
  267   269   271     1
  270   269   271     1
  269   271   272     1
  269   271   273     1
  269   271   282     1
  272   271   273     1
  272   271   282     1
  273   271   282     1
  271   273   274     1
  271   273   275     1
  271   273   276     1
  274   273   275     1
  274   273   276     1
  275   273   276     1
  273   276   277     1
  273   276   278     1
  273   276   279     1
  277   276   278     1
  277   276   279     1
  278   276   279     1
  276   279   280     1
  276   279   281     1
  280   279   281     1
  271   282   283     1
  271   282   284     1
  283   282   284     1
  282   284   285     1
  282   284   286     1
  285   284   286     1
  284   286   287     1
  284   286   288     1
  284   286   292     1
  287   286   288     1
  287   286   292     1
  288   286   292     1
  286   288   289     1
  286   288   290     1
  286   288   291     1
  289   288   290     1
  289   288   291     1
  290   288   291     1
  286   292   293     1
  286   292   294     1
  293   292   294     1


[ dihedrals ]
2         1     5     6     9    0.0       0.43389   3
2         1     5     7     9    0.0       0.43389   3
2         1     5    13     9    0.0       0.43389   3
3         1     5     6     9    0.0       0.43389   3
3         1     5     7     9    0.0       0.43389   3
3         1     5    13     9    0.0       0.43389   3
4         1     5     6     9    0.0       0.43389   3
4         1     5     7     9    0.0       0.43389   3
4         1     5    13     9    0.0       0.43389   3
1         5     7     8     9    0.0       0.43389   3
1         5     7     9     9    0.0       0.43389   3
1         5     7    10     9    180.0     7.35045   1
1         5     7    10     9    180.0     3.32015   2
1         5     7    10     9    180.0     0.01897   3
1         5     7    10     9    0.0       1.17905   4
1         5     7    10     9    0.0       0.64629   5
1         5     7    10     9    180.0     0.59339   6
1         5     7    10     9    0.0       0.43389   3
6         5     7     8     9    0.0       0.43389   3
6         5     7     9     9    0.0       0.43389   3
6         5     7    10     9    0.0       0.43389   3
13        5     7     8     9    0.0       0.43389   3
13        5     7     9     9    0.0       0.43389   3
13        5     7    10     9    0.0       0.43389   3
1         5    13    14     9    0.0       0.00000   0
1         5    13    15     9    0.0       0.00000   0
6         5    13    14     9    0.0       0.00000   0
6         5    13    15     9    0.0       0.00000   0
7         5    13    14     9    0.0       0.00000   0
7         5    13    15     9    0.0       0.55787   1
7         5    13    15     9    0.0       0.55787   2
7         5    13    15     9    0.0       1.11573   3
7         5    13    15     9    0.0       0.00000   0
5         7    10    11     9    180.0     0.51881   4
5         7    10    11     9    180.0     0.98743   6
5         7    10    11     9    180.0     2.43509   2
5         7    10    11     9    0.0       0.00000   0
5         7    10    12     9    180.0     0.51881   4
5         7    10    12     9    180.0     0.98743   6
5         7    10    12     9    180.0     2.43509   2
5         7    10    12     9    0.0       0.00000   0
8         7    10    11     9    0.0       0.00000   0
8         7    10    12     9    0.0       0.00000   0
9         7    10    11     9    0.0       0.00000   0
9         7    10    12     9    0.0       0.00000   0
5        13    15    16     9    180.0     6.97333   2
5        13    15    17     9    180.0     6.97333   2
14       13    15    16     9    0.0       5.57867   1
14       13    15    16     9    180.0     6.97333   2
14       13    15    16     9    180.0     6.97333   2
14       13    15    17     9    180.0     6.97333   2
13       15    17    18     9    0.0       0.00000   0
13       15    17    19     9    0.0       1.11573   3
13       15    17    19     9    0.0       5.57867   1
13       15    17    19     9    0.0       5.57867   2
13       15    17    19     9    0.0       0.00000   0
13       15    17    27     9    180.0     0.09484   1
13       15    17    27     9    0.0       0.93443   2
13       15    17    27     9    0.0       1.51740   3
13       15    17    27     9    0.0       0.22315   4
13       15    17    27     9    0.0       0.00000   0
16       15    17    18     9    0.0       0.00000   0
16       15    17    19     9    0.0       0.00000   0
16       15    17    27     9    0.0       0.00000   0
15       17    19    20     9    0.0       0.43389   3
15       17    19    21     9    0.0       0.43389   3
15       17    19    22     9    180.0     1.75728   1
15       17    19    22     9    0.0       0.43389   3
18       17    19    20     9    0.0       0.43389   3
18       17    19    21     9    0.0       0.43389   3
18       17    19    22     9    0.0       0.43389   3
27       17    19    20     9    0.0       0.43389   3
27       17    19    21     9    0.0       0.43389   3
27       17    19    22     9    0.0       0.47614   1
27       17    19    22     9    180.0     1.66161   2
27       17    19    22     9    0.0       0.33053   3
27       17    19    22     9    180.0     1.16371   4
27       17    19    22     9    0.0       0.29065   5
27       17    19    22     9    180.0     0.28095   6
27       17    19    22     9    0.0       0.43389   3
15       17    27    28     9    0.0       0.00000   0
15       17    27    29     9    360.0     0.54950   1
15       17    27    29     9    180.0     4.03059   2
15       17    27    29     9    180.0     1.33609   3
15       17    27    29     9    360.0     0.05327   4
15       17    27    29     9    360.0     0.01116   5
15       17    27    29     9    0.0       0.00000   0
18       17    27    28     9    0.0       2.23147   1
18       17    27    28     9    180.0     0.22315   3
18       17    27    28     9    0.0       0.00000   0
18       17    27    29     9    0.0       0.00000   0
19       17    27    28     9    0.0       0.00000   0
19       17    27    29     9    0.0       0.55787   1
19       17    27    29     9    0.0       0.55787   2
19       17    27    29     9    0.0       1.11573   3
19       17    27    29     9    0.0       0.00000   0
17       19    22    23     9    180.0     2.78933   1
17       19    22    23     9    0.0       0.00000   0
17       19    22    24     9    180.0     2.91848   1
17       19    22    24     9    180.0     0.50487   2
17       19    22    24     9    180.0     0.09874   3
17       19    22    24     9    0.0       0.27977   4
17       19    22    24     9    0.0       0.36205   5
17       19    22    24     9    180.0     0.29582   6
17       19    22    24     9    0.0       0.00000   0
20       19    22    23     9    0.0       2.23147   1
20       19    22    23     9    180.0     0.22315   3
20       19    22    23     9    0.0       0.00000   0
20       19    22    24     9    0.0       0.00000   0
21       19    22    23     9    0.0       2.23147   1
21       19    22    23     9    180.0     0.22315   3
21       19    22    23     9    0.0       0.00000   0
21       19    22    24     9    0.0       0.00000   0
19       22    24    25     9    180.0     6.97333   2
19       22    24    26     9    180.0     6.97333   2
23       22    24    25     9    0.0       5.57867   1
23       22    24    25     9    180.0     6.97333   2
23       22    24    25     9    180.0     6.97333   2
23       22    24    26     9    0.0       5.57867   1
23       22    24    26     9    180.0     6.97333   2
23       22    24    26     9    180.0     6.97333   2
17       27    29    30     9    180.0     6.97333   2
17       27    29    31     9    180.0     6.97333   2
28       27    29    30     9    0.0       5.57867   1
28       27    29    30     9    180.0     6.97333   2
28       27    29    30     9    180.0     6.97333   2
28       27    29    31     9    180.0     6.97333   2
27       29    31    32     9    0.0       0.00000   0
27       29    31    33     9    0.0       1.11573   3
27       29    31    33     9    0.0       5.57867   1
27       29    31    33     9    0.0       5.57867   2
27       29    31    33     9    0.0       0.00000   0
27       29    31    42     9    180.0     0.09484   1
27       29    31    42     9    0.0       0.93443   2
27       29    31    42     9    0.0       1.51740   3
27       29    31    42     9    0.0       0.22315   4
27       29    31    42     9    0.0       0.00000   0
30       29    31    32     9    0.0       0.00000   0
30       29    31    33     9    0.0       0.00000   0
30       29    31    42     9    0.0       0.00000   0
29       31    33    34     9    0.0       0.43389   3
29       31    33    35     9    0.0       0.43389   3
29       31    33    36     9    0.0       0.27893   1
29       31    33    36     9    0.0       0.43389   3
32       31    33    34     9    0.0       0.43389   3
32       31    33    35     9    0.0       0.43389   3
32       31    33    36     9    0.0       0.43389   3
42       31    33    34     9    0.0       0.43389   3
42       31    33    35     9    0.0       0.43389   3
42       31    33    36     9    0.0       0.83680   1
42       31    33    36     9    0.0       0.43389   3
29       31    42    43     9    0.0       0.00000   0
29       31    42    44     9    360.0     0.54950   1
29       31    42    44     9    180.0     4.03059   2
29       31    42    44     9    180.0     1.33609   3
29       31    42    44     9    360.0     0.05327   4
29       31    42    44     9    360.0     0.01116   5
29       31    42    44     9    0.0       0.00000   0
32       31    42    43     9    0.0       2.23147   1
32       31    42    43     9    180.0     0.22315   3
32       31    42    43     9    0.0       0.00000   0
32       31    42    44     9    0.0       0.00000   0
33       31    42    43     9    0.0       0.00000   0
33       31    42    44     9    0.0       0.55787   1
33       31    42    44     9    0.0       0.55787   2
33       31    42    44     9    0.0       1.11573   3
33       31    42    44     9    0.0       0.00000   0
31       33    36    37     9    0.0       0.43235   3
31       33    36    38     9    0.0       0.43235   3
31       33    36    39     9    0.0       0.43235   3
34       33    36    37     9    0.0       0.43235   3
34       33    36    38     9    0.0       0.43235   3
34       33    36    39     9    0.0       0.43235   3
35       33    36    37     9    0.0       0.43235   3
35       33    36    38     9    0.0       0.43235   3
35       33    36    39     9    0.0       0.43235   3
33       36    39    40     9    180.0     1.67360   2
33       36    39    40     9    0.0       0.00000   0
33       36    39    41     9    180.0     1.67360   2
33       36    39    41     9    0.0       0.00000   0
37       36    39    40     9    0.0       0.00000   0
37       36    39    41     9    0.0       0.00000   0
38       36    39    40     9    0.0       0.00000   0
38       36    39    41     9    0.0       0.00000   0
31       42    44    45     9    180.0     6.97333   2
31       42    44    46     9    180.0     6.97333   2
43       42    44    45     9    0.0       5.57867   1
43       42    44    45     9    180.0     6.97333   2
43       42    44    45     9    180.0     6.97333   2
43       42    44    46     9    180.0     6.97333   2
42       44    46    47     9    0.0       0.00000   0
42       44    46    48     9    0.0       1.11573   3
42       44    46    48     9    0.0       5.57867   1
42       44    46    48     9    0.0       5.57867   2
42       44    46    48     9    0.0       0.00000   0
42       44    46    52     9    180.0     0.09484   1
42       44    46    52     9    0.0       0.93443   2
42       44    46    52     9    0.0       1.51740   3
42       44    46    52     9    0.0       0.22315   4
42       44    46    52     9    0.0       0.00000   0
45       44    46    47     9    0.0       0.00000   0
45       44    46    48     9    0.0       0.00000   0
45       44    46    52     9    0.0       0.00000   0
44       46    48    49     9    0.0       0.43389   3
44       46    48    50     9    0.0       0.43389   3
44       46    48    51     9    0.0       0.43389   3
47       46    48    49     9    0.0       0.43389   3
47       46    48    50     9    0.0       0.43389   3
47       46    48    51     9    0.0       0.43389   3
52       46    48    49     9    0.0       0.43389   3
52       46    48    50     9    0.0       0.43389   3
52       46    48    51     9    0.0       0.43389   3
44       46    52    53     9    0.0       0.00000   0
44       46    52    54     9    360.0     0.54950   1
44       46    52    54     9    180.0     4.03059   2
44       46    52    54     9    180.0     1.33609   3
44       46    52    54     9    360.0     0.05327   4
44       46    52    54     9    360.0     0.01116   5
44       46    52    54     9    0.0       0.00000   0
47       46    52    53     9    0.0       2.23147   1
47       46    52    53     9    180.0     0.22315   3
47       46    52    53     9    0.0       0.00000   0
47       46    52    54     9    0.0       0.00000   0
48       46    52    53     9    0.0       0.00000   0
48       46    52    54     9    0.0       0.55787   1
48       46    52    54     9    0.0       0.55787   2
48       46    52    54     9    0.0       1.11573   3
48       46    52    54     9    0.0       0.00000   0
46       52    54    55     9    180.0     6.97333   2
46       52    54    56     9    180.0     6.97333   2
53       52    54    55     9    0.0       5.57867   1
53       52    54    55     9    180.0     6.97333   2
53       52    54    55     9    180.0     6.97333   2
53       52    54    56     9    180.0     6.97333   2
52       54    56    57     9    0.0       0.00000   0
52       54    56    58     9    0.0       1.11573   3
52       54    56    58     9    0.0       5.57867   1
52       54    56    58     9    0.0       5.57867   2
52       54    56    58     9    0.0       0.00000   0
52       54    56    73     9    180.0     0.09484   1
52       54    56    73     9    0.0       0.93443   2
52       54    56    73     9    0.0       1.51740   3
52       54    56    73     9    0.0       0.22315   4
52       54    56    73     9    0.0       0.00000   0
55       54    56    57     9    0.0       0.00000   0
55       54    56    58     9    0.0       0.00000   0
55       54    56    73     9    0.0       0.00000   0
54       56    58    59     9    0.0       0.43389   3
54       56    58    60     9    0.0       0.43389   3
54       56    58    61     9    0.0       0.00000   0
54       56    58    61     9    0.0       0.43389   3
57       56    58    59     9    0.0       0.43389   3
57       56    58    60     9    0.0       0.43389   3
57       56    58    61     9    0.0       0.43389   3
73       56    58    59     9    0.0       0.43389   3
73       56    58    60     9    0.0       0.43389   3
73       56    58    61     9    0.0       1.45045   1
73       56    58    61     9    0.0       0.43389   3
54       56    73    74     9    0.0       0.00000   0
54       56    73    75     9    360.0     0.54950   1
54       56    73    75     9    180.0     4.03059   2
54       56    73    75     9    180.0     1.33609   3
54       56    73    75     9    360.0     0.05327   4
54       56    73    75     9    360.0     0.01116   5
54       56    73    75     9    0.0       0.00000   0
57       56    73    74     9    0.0       2.23147   1
57       56    73    74     9    180.0     0.22315   3
57       56    73    74     9    0.0       0.00000   0
57       56    73    75     9    0.0       0.00000   0
58       56    73    74     9    0.0       0.00000   0
58       56    73    75     9    0.0       0.55787   1
58       56    73    75     9    0.0       0.55787   2
58       56    73    75     9    0.0       1.11573   3
58       56    73    75     9    0.0       0.00000   0
56       58    61    62     9    0.0       0.00000   0
56       58    61    71     9    0.0       0.00000   0
59       58    61    62     9    0.0       0.00000   0
59       58    61    71     9    0.0       0.00000   0
60       58    61    62     9    0.0       0.00000   0
60       58    61    71     9    0.0       0.00000   0
58       61    62    63     9    180.0     10.11133  2
58       61    62    64     9    180.0     10.11133  2
71       61    62    63     9    180.0     10.11133  2
71       61    62    64     9    180.0     10.11133  2
58       61    71    69     9    180.0     10.11133  2
58       61    71    72     9    180.0     10.11133  2
62       61    71    69     9    180.0     10.11133  2
62       61    71    72     9    180.0     10.11133  2
61       62    64    65     9    180.0     10.11133  2
61       62    64    66     9    180.0     10.11133  2
63       62    64    65     9    180.0     10.11133  2
63       62    64    66     9    180.0     10.11133  2
62       64    66    67     9    180.0     10.11133  2
62       64    66    69     9    180.0     10.11133  2
65       64    66    67     9    180.0     10.11133  2
65       64    66    69     9    180.0     10.11133  2
64       66    67    68     9    180.0     6.41547   2
69       66    67    68     9    180.0     6.41547   2
64       66    69    70     9    180.0     10.11133  2
64       66    69    71     9    180.0     10.11133  2
67       66    69    70     9    180.0     10.11133  2
67       66    69    71     9    180.0     10.11133  2
66       69    71    61     9    180.0     10.11133  2
66       69    71    72     9    180.0     10.11133  2
70       69    71    61     9    180.0     10.11133  2
70       69    71    72     9    180.0     10.11133  2
56       73    75    76     9    180.0     6.97333   2
56       73    75    77     9    180.0     6.97333   2
74       73    75    76     9    0.0       5.57867   1
74       73    75    76     9    180.0     6.97333   2
74       73    75    76     9    180.0     6.97333   2
74       73    75    77     9    180.0     6.97333   2
73       75    77    78     9    0.0       0.00000   0
73       75    77    79     9    0.0       1.11573   3
73       75    77    79     9    0.0       5.57867   1
73       75    77    79     9    0.0       5.57867   2
73       75    77    79     9    0.0       0.00000   0
73       75    77    88     9    180.0     0.09484   1
73       75    77    88     9    0.0       0.93443   2
73       75    77    88     9    0.0       1.51740   3
73       75    77    88     9    0.0       0.22315   4
73       75    77    88     9    0.0       0.00000   0
76       75    77    78     9    0.0       0.00000   0
76       75    77    79     9    0.0       0.00000   0
76       75    77    88     9    0.0       0.00000   0
75       77    79    80     9    0.0       0.43389   3
75       77    79    81     9    0.0       0.43389   3
75       77    79    82     9    0.0       0.27893   1
75       77    79    82     9    0.0       0.43389   3
78       77    79    80     9    0.0       0.43389   3
78       77    79    81     9    0.0       0.43389   3
78       77    79    82     9    0.0       0.43389   3
88       77    79    80     9    0.0       0.43389   3
88       77    79    81     9    0.0       0.43389   3
88       77    79    82     9    0.0       0.83680   1
88       77    79    82     9    0.0       0.43389   3
75       77    88    89     9    0.0       0.00000   0
75       77    88    90     9    360.0     0.54950   1
75       77    88    90     9    180.0     4.03059   2
75       77    88    90     9    180.0     1.33609   3
75       77    88    90     9    360.0     0.05327   4
75       77    88    90     9    360.0     0.01116   5
75       77    88    90     9    0.0       0.00000   0
78       77    88    89     9    0.0       2.23147   1
78       77    88    89     9    180.0     0.22315   3
78       77    88    89     9    0.0       0.00000   0
78       77    88    90     9    0.0       0.00000   0
79       77    88    89     9    0.0       0.00000   0
79       77    88    90     9    0.0       0.55787   1
79       77    88    90     9    0.0       0.55787   2
79       77    88    90     9    0.0       1.11573   3
79       77    88    90     9    0.0       0.00000   0
77       79    82    83     9    0.0       0.43235   3
77       79    82    84     9    0.0       0.43235   3
77       79    82    85     9    0.0       0.43235   3
80       79    82    83     9    0.0       0.43235   3
80       79    82    84     9    0.0       0.43235   3
80       79    82    85     9    0.0       0.43235   3
81       79    82    83     9    0.0       0.43235   3
81       79    82    84     9    0.0       0.43235   3
81       79    82    85     9    0.0       0.43235   3
79       82    85    86     9    180.0     1.67360   2
79       82    85    86     9    0.0       0.00000   0
79       82    85    87     9    180.0     1.67360   2
79       82    85    87     9    0.0       0.00000   0
83       82    85    86     9    0.0       0.00000   0
83       82    85    87     9    0.0       0.00000   0
84       82    85    86     9    0.0       0.00000   0
84       82    85    87     9    0.0       0.00000   0
77       88    90    91     9    180.0     6.97333   2
77       88    90    92     9    180.0     6.97333   2
89       88    90    91     9    0.0       5.57867   1
89       88    90    91     9    180.0     6.97333   2
89       88    90    91     9    180.0     6.97333   2
89       88    90    92     9    180.0     6.97333   2
88       90    92    93     9    0.0       0.00000   0
88       90    92    94     9    0.0       1.11573   3
88       90    92    94     9    0.0       5.57867   1
88       90    92    94     9    0.0       5.57867   2
88       90    92    94     9    0.0       0.00000   0
88       90    92   105     9    180.0     0.09484   1
88       90    92   105     9    0.0       0.93443   2
88       90    92   105     9    0.0       1.51740   3
88       90    92   105     9    0.0       0.22315   4
88       90    92   105     9    0.0       0.00000   0
91       90    92    93     9    0.0       0.00000   0
91       90    92    94     9    0.0       0.00000   0
91       90    92   105     9    0.0       0.00000   0
90       92    94    95     9    0.0       0.43389   3
90       92    94    96     9    0.0       0.43389   3
90       92    94    97     9    0.0       0.27893   1
90       92    94    97     9    0.0       0.43389   3
93       92    94    95     9    0.0       0.43389   3
93       92    94    96     9    0.0       0.43389   3
93       92    94    97     9    0.0       0.43389   3
105      92    94    95     9    0.0       0.43389   3
105      92    94    96     9    0.0       0.43389   3
105      92    94    97     9    0.0       0.83680   1
105      92    94    97     9    0.0       0.43389   3
90       92   105   106     9    0.0       0.00000   0
90       92   105   107     9    360.0     0.54950   1
90       92   105   107     9    180.0     4.03059   2
90       92   105   107     9    180.0     1.33609   3
90       92   105   107     9    360.0     0.05327   4
90       92   105   107     9    360.0     0.01116   5
90       92   105   107     9    0.0       0.00000   0
93       92   105   106     9    0.0       2.23147   1
93       92   105   106     9    180.0     0.22315   3
93       92   105   106     9    0.0       0.00000   0
93       92   105   107     9    0.0       0.00000   0
94       92   105   106     9    0.0       0.00000   0
94       92   105   107     9    0.0       0.55787   1
94       92   105   107     9    0.0       0.55787   2
94       92   105   107     9    0.0       1.11573   3
94       92   105   107     9    0.0       0.00000   0
92       94    97    98     9    0.0       0.43235   3
92       94    97    99     9    0.0       0.43235   3
92       94    97   100     9    0.0       0.00000   0
92       94    97   100     9    0.0       0.43235   3
95       94    97    98     9    0.0       0.43235   3
95       94    97    99     9    0.0       0.43235   3
95       94    97   100     9    0.0       0.43235   3
96       94    97    98     9    0.0       0.43235   3
96       94    97    99     9    0.0       0.43235   3
96       94    97   100     9    0.0       0.43235   3
94       97   100   101     9    0.0       0.92885   3
98       97   100   101     9    0.0       0.92885   3
99       97   100   101     9    0.0       0.92885   3
97      100   101   102     9    0.0       0.92978   3
97      100   101   103     9    0.0       0.92978   3
97      100   101   104     9    0.0       0.92978   3
92      105   107   108     9    180.0     6.97333   2
92      105   107   117     9    180.0     6.97333   2
106     105   107   108     9    180.0     6.97333   2
106     105   107   117     9    180.0     6.97333   2
105     107   108   109     9    0.0       0.00000   0
105     107   108   110     9    0.0       0.00000   0
105     107   108   111     9    0.0       1.11573   3
105     107   108   111     9    0.0       5.57867   1
105     107   108   111     9    0.0       5.57867   2
105     107   108   111     9    0.0       0.00000   0
117     107   108   109     9    0.0       0.00000   0
117     107   108   110     9    0.0       0.00000   0
117     107   108   111     9    0.0       0.00000   0
105     107   117   114     9    0.0       5.57867   1
105     107   117   114     9    0.0       5.57867   2
105     107   117   114     9    0.0       1.11573   3
105     107   117   114     9    0.0       0.00000   0
105     107   117   118     9    0.0       0.00000   0
105     107   117   119     9    0.0       0.75312   2
105     107   117   119     9    0.0       1.17152   3
105     107   117   119     9    0.0       0.00000   0
108     107   117   114     9    0.0       0.00000   0
108     107   117   118     9    0.0       0.00000   0
108     107   117   119     9    0.0       0.00000   0
107     108   111   112     9    0.0       0.43389   3
107     108   111   113     9    0.0       0.43389   3
107     108   111   114     9    0.0       0.43389   3
109     108   111   112     9    0.0       0.43389   3
109     108   111   113     9    0.0       0.43389   3
109     108   111   114     9    0.0       0.43389   3
110     108   111   112     9    0.0       0.43389   3
110     108   111   113     9    0.0       0.43389   3
110     108   111   114     9    0.0       0.43389   3
108     111   114   115     9    0.0       0.44629   3
108     111   114   115     9    0.0       0.43389   3
108     111   114   116     9    0.0       0.44629   3
108     111   114   116     9    0.0       0.43389   3
108     111   114   117     9    0.0       0.50208   3
108     111   114   117     9    180.0     0.55787   1
108     111   114   117     9    180.0     0.69733   2
108     111   114   117     9    0.0       0.43389   3
112     111   114   115     9    0.0       0.41840   3
112     111   114   115     9    0.0       0.41840   3
112     111   114   115     9    0.0       0.43389   3
112     111   114   116     9    0.0       0.41840   3
112     111   114   116     9    0.0       0.41840   3
112     111   114   116     9    0.0       0.43389   3
112     111   114   117     9    0.0       0.44629   3
112     111   114   117     9    0.0       0.43389   3
113     111   114   115     9    0.0       0.41840   3
113     111   114   115     9    0.0       0.41840   3
113     111   114   115     9    0.0       0.43389   3
113     111   114   116     9    0.0       0.41840   3
113     111   114   116     9    0.0       0.41840   3
113     111   114   116     9    0.0       0.43389   3
113     111   114   117     9    0.0       0.44629   3
113     111   114   117     9    0.0       0.43389   3
111     114   117   107     9    0.0       0.43389   3
111     114   117   118     9    0.0       0.43389   3
111     114   117   119     9    0.0       0.43389   3
115     114   117   107     9    0.0       0.43389   3
115     114   117   118     9    0.0       0.43389   3
115     114   117   119     9    0.0       0.43389   3
116     114   117   107     9    0.0       0.43389   3
116     114   117   118     9    0.0       0.43389   3
116     114   117   119     9    0.0       0.43389   3
107     117   119   120     9    0.0       0.00000   0
107     117   119   121     9    180.0     1.25520   1
107     117   119   121     9    180.0     4.40715   2
107     117   119   121     9    180.0     1.53413   3
107     117   119   121     9    0.0       0.00000   0
114     117   119   120     9    0.0       0.00000   0
114     117   119   121     9    0.0       0.55787   1
114     117   119   121     9    0.0       0.55787   2
114     117   119   121     9    0.0       1.11573   3
114     117   119   121     9    0.0       0.00000   0
118     117   119   120     9    0.0       2.23147   1
118     117   119   120     9    180.0     0.22315   3
118     117   119   120     9    0.0       0.00000   0
118     117   119   121     9    0.0       0.00000   0
117     119   121   122     9    180.0     6.97333   2
117     119   121   123     9    180.0     6.97333   2
120     119   121   122     9    0.0       5.57867   1
120     119   121   122     9    180.0     6.97333   2
120     119   121   122     9    180.0     6.97333   2
120     119   121   123     9    180.0     6.97333   2
119     121   123   124     9    0.0       0.00000   0
119     121   123   125     9    0.0       5.57867   1
119     121   123   125     9    0.0       5.57867   2
119     121   123   125     9    0.0       1.11573   3
119     121   123   125     9    0.0       0.00000   0
119     121   123   130     9    180.0     0.09484   1
119     121   123   130     9    0.0       0.93443   2
119     121   123   130     9    0.0       1.51740   3
119     121   123   130     9    0.0       0.22315   4
119     121   123   130     9    0.0       0.00000   0
122     121   123   124     9    0.0       0.00000   0
122     121   123   125     9    0.0       0.00000   0
122     121   123   130     9    0.0       0.00000   0
121     123   125   126     9    0.0       0.43235   3
121     123   125   127     9    0.0       0.43235   3
121     123   125   128     9    180.0     0.69733   1
121     123   125   128     9    0.0       0.43235   3
124     123   125   126     9    0.0       0.43235   3
124     123   125   127     9    0.0       0.43235   3
124     123   125   128     9    0.0       0.43235   3
130     123   125   126     9    0.0       0.43235   3
130     123   125   127     9    0.0       0.43235   3
130     123   125   128     9    180.0     2.51040   1
130     123   125   128     9    0.0       0.43235   3
121     123   130   131     9    0.0       0.00000   0
121     123   130   132     9    360.0     0.54950   1
121     123   130   132     9    180.0     4.03059   2
121     123   130   132     9    180.0     1.33609   3
121     123   130   132     9    360.0     0.05327   4
121     123   130   132     9    360.0     0.01116   5
121     123   130   132     9    0.0       0.00000   0
124     123   130   131     9    0.0       2.23147   1
124     123   130   131     9    180.0     0.22315   3
124     123   130   131     9    0.0       0.00000   0
124     123   130   132     9    0.0       0.00000   0
125     123   130   131     9    0.0       0.00000   0
125     123   130   132     9    0.0       0.55787   1
125     123   130   132     9    0.0       0.55787   2
125     123   130   132     9    0.0       1.11573   3
125     123   130   132     9    0.0       0.00000   0
123     125   128   129     9    0.0       0.16736   2
123     125   128   129     9    0.0       0.55787   3
123     125   128   129     9    0.0       2.09200   1
123     125   128   129     9    0.0       0.46582   3
126     125   128   129     9    0.0       0.46582   3
127     125   128   129     9    0.0       0.46582   3
123     130   132   133     9    180.0     6.97333   2
123     130   132   134     9    180.0     6.97333   2
131     130   132   133     9    0.0       5.57867   1
131     130   132   133     9    180.0     6.97333   2
131     130   132   133     9    180.0     6.97333   2
131     130   132   134     9    180.0     6.97333   2
130     132   134   135     9    0.0       0.00000   0
130     132   134   136     9    0.0       1.11573   3
130     132   134   136     9    0.0       5.57867   1
130     132   134   136     9    0.0       5.57867   2
130     132   134   136     9    0.0       0.00000   0
130     132   134   145     9    180.0     0.09484   1
130     132   134   145     9    0.0       0.93443   2
130     132   134   145     9    0.0       1.51740   3
130     132   134   145     9    0.0       0.22315   4
130     132   134   145     9    0.0       0.00000   0
133     132   134   135     9    0.0       0.00000   0
133     132   134   136     9    0.0       0.00000   0
133     132   134   145     9    0.0       0.00000   0
132     134   136   137     9    0.0       0.43389   3
132     134   136   138     9    0.0       0.43389   3
132     134   136   139     9    0.0       0.27893   1
132     134   136   139     9    0.0       0.43389   3
135     134   136   137     9    0.0       0.43389   3
135     134   136   138     9    0.0       0.43389   3
135     134   136   139     9    0.0       0.43389   3
145     134   136   137     9    0.0       0.43389   3
145     134   136   138     9    0.0       0.43389   3
145     134   136   139     9    0.0       0.83680   1
145     134   136   139     9    0.0       0.43389   3
132     134   145   146     9    0.0       0.00000   0
132     134   145   147     9    360.0     0.54950   1
132     134   145   147     9    180.0     4.03059   2
132     134   145   147     9    180.0     1.33609   3
132     134   145   147     9    360.0     0.05327   4
132     134   145   147     9    360.0     0.01116   5
132     134   145   147     9    0.0       0.00000   0
135     134   145   146     9    0.0       2.23147   1
135     134   145   146     9    180.0     0.22315   3
135     134   145   146     9    0.0       0.00000   0
135     134   145   147     9    0.0       0.00000   0
136     134   145   146     9    0.0       0.00000   0
136     134   145   147     9    0.0       0.55787   1
136     134   145   147     9    0.0       0.55787   2
136     134   145   147     9    0.0       1.11573   3
136     134   145   147     9    0.0       0.00000   0
134     136   139   140     9    0.0       0.43235   3
134     136   139   141     9    0.0       0.43235   3
134     136   139   142     9    0.0       0.43235   3
137     136   139   140     9    0.0       0.43235   3
137     136   139   141     9    0.0       0.43235   3
137     136   139   142     9    0.0       0.43235   3
138     136   139   140     9    0.0       0.43235   3
138     136   139   141     9    0.0       0.43235   3
138     136   139   142     9    0.0       0.43235   3
136     139   142   143     9    180.0     1.67360   2
136     139   142   143     9    0.0       0.00000   0
136     139   142   144     9    180.0     1.67360   2
136     139   142   144     9    0.0       0.00000   0
140     139   142   143     9    0.0       0.00000   0
140     139   142   144     9    0.0       0.00000   0
141     139   142   143     9    0.0       0.00000   0
141     139   142   144     9    0.0       0.00000   0
134     145   147   148     9    180.0     6.97333   2
134     145   147   149     9    180.0     6.97333   2
146     145   147   148     9    0.0       5.57867   1
146     145   147   148     9    180.0     6.97333   2
146     145   147   148     9    180.0     6.97333   2
146     145   147   149     9    180.0     6.97333   2
145     147   149   150     9    0.0       0.00000   0
145     147   149   151     9    0.0       1.11573   3
145     147   149   151     9    0.0       5.57867   1
145     147   149   151     9    0.0       5.57867   2
145     147   149   151     9    0.0       0.00000   0
145     147   149   160     9    180.0     0.09484   1
145     147   149   160     9    0.0       0.93443   2
145     147   149   160     9    0.0       1.51740   3
145     147   149   160     9    0.0       0.22315   4
145     147   149   160     9    0.0       0.00000   0
148     147   149   150     9    0.0       0.00000   0
148     147   149   151     9    0.0       0.00000   0
148     147   149   160     9    0.0       0.00000   0
147     149   151   152     9    0.0       0.43389   3
147     149   151   153     9    0.0       0.43389   3
147     149   151   154     9    0.0       0.27893   1
147     149   151   154     9    0.0       0.43389   3
150     149   151   152     9    0.0       0.43389   3
150     149   151   153     9    0.0       0.43389   3
150     149   151   154     9    0.0       0.43389   3
160     149   151   152     9    0.0       0.43389   3
160     149   151   153     9    0.0       0.43389   3
160     149   151   154     9    0.0       0.83680   1
160     149   151   154     9    0.0       0.43389   3
147     149   160   161     9    0.0       0.00000   0
147     149   160   162     9    360.0     0.54950   1
147     149   160   162     9    180.0     4.03059   2
147     149   160   162     9    180.0     1.33609   3
147     149   160   162     9    360.0     0.05327   4
147     149   160   162     9    360.0     0.01116   5
147     149   160   162     9    0.0       0.00000   0
150     149   160   161     9    0.0       2.23147   1
150     149   160   161     9    180.0     0.22315   3
150     149   160   161     9    0.0       0.00000   0
150     149   160   162     9    0.0       0.00000   0
151     149   160   161     9    0.0       0.00000   0
151     149   160   162     9    0.0       0.55787   1
151     149   160   162     9    0.0       0.55787   2
151     149   160   162     9    0.0       1.11573   3
151     149   160   162     9    0.0       0.00000   0
149     151   154   155     9    0.0       0.43235   3
149     151   154   156     9    0.0       0.43235   3
149     151   154   157     9    0.0       0.43235   3
152     151   154   155     9    0.0       0.43235   3
152     151   154   156     9    0.0       0.43235   3
152     151   154   157     9    0.0       0.43235   3
153     151   154   155     9    0.0       0.43235   3
153     151   154   156     9    0.0       0.43235   3
153     151   154   157     9    0.0       0.43235   3
151     154   157   158     9    180.0     1.67360   2
151     154   157   158     9    0.0       0.00000   0
151     154   157   159     9    180.0     1.67360   2
151     154   157   159     9    0.0       0.00000   0
155     154   157   158     9    0.0       0.00000   0
155     154   157   159     9    0.0       0.00000   0
156     154   157   158     9    0.0       0.00000   0
156     154   157   159     9    0.0       0.00000   0
149     160   162   163     9    180.0     6.97333   2
149     160   162   164     9    180.0     6.97333   2
161     160   162   163     9    0.0       5.57867   1
161     160   162   163     9    180.0     6.97333   2
161     160   162   163     9    180.0     6.97333   2
161     160   162   164     9    180.0     6.97333   2
160     162   164   165     9    0.0       0.00000   0
160     162   164   166     9    0.0       0.00000   0
160     162   164   167     9    0.0       0.23511   1
160     162   164   167     9    0.0       1.06361   2
160     162   164   167     9    180.0     0.05587   3
160     162   164   167     9    0.0       0.21597   4
160     162   164   167     9    0.0       0.00000   0
163     162   164   165     9    0.0       0.00000   0
163     162   164   166     9    0.0       0.00000   0
163     162   164   167     9    0.0       0.00000   0
162     164   167   168     9    0.0       0.00000   0
162     164   167   169     9    180.0     1.79630   1
162     164   167   169     9    180.0     4.45777   2
162     164   167   169     9    180.0     1.11407   3
162     164   167   169     9    0.0       0.20946   4
162     164   167   169     9    0.0       0.00000   0
165     164   167   168     9    0.0       2.23147   1
165     164   167   168     9    180.0     0.22315   3
165     164   167   168     9    0.0       0.00000   0
165     164   167   169     9    0.0       0.00000   0
166     164   167   168     9    0.0       2.23147   1
166     164   167   168     9    180.0     0.22315   3
166     164   167   168     9    0.0       0.00000   0
166     164   167   169     9    0.0       0.00000   0
164     167   169   170     9    180.0     6.97333   2
164     167   169   171     9    180.0     6.97333   2
168     167   169   170     9    0.0       5.57867   1
168     167   169   170     9    180.0     6.97333   2
168     167   169   170     9    180.0     6.97333   2
168     167   169   171     9    180.0     6.97333   2
167     169   171   172     9    0.0       0.00000   0
167     169   171   173     9    0.0       1.11573   3
167     169   171   173     9    0.0       5.57867   1
167     169   171   173     9    0.0       5.57867   2
167     169   171   173     9    0.0       0.00000   0
167     169   171   188     9    180.0     0.09484   1
167     169   171   188     9    0.0       0.93443   2
167     169   171   188     9    0.0       1.51740   3
167     169   171   188     9    0.0       0.22315   4
167     169   171   188     9    0.0       0.00000   0
170     169   171   172     9    0.0       0.00000   0
170     169   171   173     9    0.0       0.00000   0
170     169   171   188     9    0.0       0.00000   0
169     171   173   174     9    0.0       0.43389   3
169     171   173   175     9    0.0       0.43389   3
169     171   173   176     9    0.0       0.00000   0
169     171   173   176     9    0.0       0.43389   3
172     171   173   174     9    0.0       0.43389   3
172     171   173   175     9    0.0       0.43389   3
172     171   173   176     9    0.0       0.43389   3
188     171   173   174     9    0.0       0.43389   3
188     171   173   175     9    0.0       0.43389   3
188     171   173   176     9    0.0       1.45045   1
188     171   173   176     9    0.0       0.43389   3
169     171   188   189     9    0.0       0.00000   0
169     171   188   190     9    360.0     0.54950   1
169     171   188   190     9    180.0     4.03059   2
169     171   188   190     9    180.0     1.33609   3
169     171   188   190     9    360.0     0.05327   4
169     171   188   190     9    360.0     0.01116   5
169     171   188   190     9    0.0       0.00000   0
172     171   188   189     9    0.0       2.23147   1
172     171   188   189     9    180.0     0.22315   3
172     171   188   189     9    0.0       0.00000   0
172     171   188   190     9    0.0       0.00000   0
173     171   188   189     9    0.0       0.00000   0
173     171   188   190     9    0.0       0.55787   1
173     171   188   190     9    0.0       0.55787   2
173     171   188   190     9    0.0       1.11573   3
173     171   188   190     9    0.0       0.00000   0
171     173   176   177     9    0.0       0.00000   0
171     173   176   186     9    0.0       0.00000   0
174     173   176   177     9    0.0       0.00000   0
174     173   176   186     9    0.0       0.00000   0
175     173   176   177     9    0.0       0.00000   0
175     173   176   186     9    0.0       0.00000   0
173     176   177   178     9    180.0     10.11133  2
173     176   177   179     9    180.0     10.11133  2
186     176   177   178     9    180.0     10.11133  2
186     176   177   179     9    180.0     10.11133  2
173     176   186   184     9    180.0     10.11133  2
173     176   186   187     9    180.0     10.11133  2
177     176   186   184     9    180.0     10.11133  2
177     176   186   187     9    180.0     10.11133  2
176     177   179   180     9    180.0     10.11133  2
176     177   179   181     9    180.0     10.11133  2
178     177   179   180     9    180.0     10.11133  2
178     177   179   181     9    180.0     10.11133  2
177     179   181   182     9    180.0     10.11133  2
177     179   181   184     9    180.0     10.11133  2
180     179   181   182     9    180.0     10.11133  2
180     179   181   184     9    180.0     10.11133  2
179     181   182   183     9    180.0     6.41547   2
184     181   182   183     9    180.0     6.41547   2
179     181   184   185     9    180.0     10.11133  2
179     181   184   186     9    180.0     10.11133  2
182     181   184   185     9    180.0     10.11133  2
182     181   184   186     9    180.0     10.11133  2
181     184   186   176     9    180.0     10.11133  2
181     184   186   187     9    180.0     10.11133  2
185     184   186   176     9    180.0     10.11133  2
185     184   186   187     9    180.0     10.11133  2
171     188   190   191     9    180.0     6.97333   2
171     188   190   192     9    180.0     6.97333   2
189     188   190   191     9    0.0       5.57867   1
189     188   190   191     9    180.0     6.97333   2
189     188   190   191     9    180.0     6.97333   2
189     188   190   192     9    180.0     6.97333   2
188     190   192   193     9    0.0       0.00000   0
188     190   192   194     9    0.0       1.11573   3
188     190   192   194     9    0.0       5.57867   1
188     190   192   194     9    0.0       5.57867   2
188     190   192   194     9    0.0       0.00000   0
188     190   192   205     9    180.0     0.09484   1
188     190   192   205     9    0.0       0.93443   2
188     190   192   205     9    0.0       1.51740   3
188     190   192   205     9    0.0       0.22315   4
188     190   192   205     9    0.0       0.00000   0
191     190   192   193     9    0.0       0.00000   0
191     190   192   194     9    0.0       0.00000   0
191     190   192   205     9    0.0       0.00000   0
190     192   194   195     9    0.0       0.43389   3
190     192   194   196     9    0.0       0.43389   3
190     192   194   197     9    0.0       0.27893   1
190     192   194   197     9    0.0       0.43389   3
193     192   194   195     9    0.0       0.43389   3
193     192   194   196     9    0.0       0.43389   3
193     192   194   197     9    0.0       0.43389   3
205     192   194   195     9    0.0       0.43389   3
205     192   194   196     9    0.0       0.43389   3
205     192   194   197     9    0.0       0.83680   1
205     192   194   197     9    0.0       0.43389   3
190     192   205   206     9    0.0       0.00000   0
190     192   205   207     9    360.0     0.54950   1
190     192   205   207     9    180.0     4.03059   2
190     192   205   207     9    180.0     1.33609   3
190     192   205   207     9    360.0     0.05327   4
190     192   205   207     9    360.0     0.01116   5
190     192   205   207     9    0.0       0.00000   0
193     192   205   206     9    0.0       2.23147   1
193     192   205   206     9    180.0     0.22315   3
193     192   205   206     9    0.0       0.00000   0
193     192   205   207     9    0.0       0.00000   0
194     192   205   206     9    0.0       0.00000   0
194     192   205   207     9    0.0       0.55787   1
194     192   205   207     9    0.0       0.55787   2
194     192   205   207     9    0.0       1.11573   3
194     192   205   207     9    0.0       0.00000   0
192     194   197   198     9    0.0       0.43235   3
192     194   197   199     9    0.0       0.43235   3
192     194   197   200     9    0.0       0.43235   3
195     194   197   198     9    0.0       0.43235   3
195     194   197   199     9    0.0       0.43235   3
195     194   197   200     9    0.0       0.43235   3
196     194   197   198     9    0.0       0.43235   3
196     194   197   199     9    0.0       0.43235   3
196     194   197   200     9    0.0       0.43235   3
194     197   200   201     9    180.0     1.67360   2
194     197   200   201     9    0.0       0.00000   0
194     197   200   202     9    0.0       0.00000   0
198     197   200   201     9    0.0       0.00000   0
198     197   200   202     9    0.0       0.00000   0
199     197   200   201     9    0.0       0.00000   0
199     197   200   202     9    0.0       0.00000   0
197     200   202   203     9    180.0     6.97333   2
197     200   202   204     9    180.0     6.97333   2
201     200   202   203     9    0.0       5.57867   1
201     200   202   203     9    180.0     6.97333   2
201     200   202   203     9    180.0     6.97333   2
201     200   202   204     9    0.0       5.57867   1
201     200   202   204     9    180.0     6.97333   2
201     200   202   204     9    180.0     6.97333   2
192     205   207   208     9    180.0     6.97333   2
192     205   207   209     9    180.0     6.97333   2
206     205   207   208     9    0.0       5.57867   1
206     205   207   208     9    180.0     6.97333   2
206     205   207   208     9    180.0     6.97333   2
206     205   207   209     9    180.0     6.97333   2
205     207   209   210     9    0.0       0.00000   0
205     207   209   211     9    0.0       1.11573   3
205     207   209   211     9    0.0       5.57867   1
205     207   209   211     9    0.0       5.57867   2
205     207   209   211     9    0.0       0.00000   0
205     207   209   217     9    180.0     0.09484   1
205     207   209   217     9    0.0       0.93443   2
205     207   209   217     9    0.0       1.51740   3
205     207   209   217     9    0.0       0.22315   4
205     207   209   217     9    0.0       0.00000   0
208     207   209   210     9    0.0       0.00000   0
208     207   209   211     9    0.0       0.00000   0
208     207   209   217     9    0.0       0.00000   0
207     209   211   212     9    0.0       0.43389   3
207     209   211   213     9    0.0       0.43389   3
207     209   211   214     9    180.0     8.03607   1
207     209   211   214     9    180.0     3.37788   2
207     209   211   214     9    0.0       0.17294   3
207     209   211   214     9    0.0       0.68339   4
207     209   211   214     9    0.0       0.36540   5
207     209   211   214     9    180.0     0.39609   6
207     209   211   214     9    0.0       0.43389   3
210     209   211   212     9    0.0       0.43389   3
210     209   211   213     9    0.0       0.43389   3
210     209   211   214     9    0.0       0.43389   3
217     209   211   212     9    0.0       0.43389   3
217     209   211   213     9    0.0       0.43389   3
217     209   211   214     9    0.0       0.43389   3
207     209   217   218     9    0.0       0.00000   0
207     209   217   219     9    360.0     0.54950   1
207     209   217   219     9    180.0     4.03059   2
207     209   217   219     9    180.0     1.33609   3
207     209   217   219     9    360.0     0.05327   4
207     209   217   219     9    360.0     0.01116   5
207     209   217   219     9    0.0       0.00000   0
210     209   217   218     9    0.0       2.23147   1
210     209   217   218     9    180.0     0.22315   3
210     209   217   218     9    0.0       0.00000   0
210     209   217   219     9    0.0       0.00000   0
211     209   217   218     9    0.0       0.00000   0
211     209   217   219     9    0.0       0.55787   1
211     209   217   219     9    0.0       0.55787   2
211     209   217   219     9    0.0       1.11573   3
211     209   217   219     9    0.0       0.00000   0
209     211   214   215     9    180.0     0.51881   4
209     211   214   215     9    180.0     0.98743   6
209     211   214   215     9    180.0     2.43509   2
209     211   214   215     9    0.0       0.00000   0
209     211   214   216     9    180.0     0.51881   4
209     211   214   216     9    180.0     0.98743   6
209     211   214   216     9    180.0     2.43509   2
209     211   214   216     9    0.0       0.00000   0
212     211   214   215     9    0.0       0.00000   0
212     211   214   216     9    0.0       0.00000   0
213     211   214   215     9    0.0       0.00000   0
213     211   214   216     9    0.0       0.00000   0
209     217   219   220     9    180.0     6.97333   2
209     217   219   221     9    180.0     6.97333   2
218     217   219   220     9    0.0       5.57867   1
218     217   219   220     9    180.0     6.97333   2
218     217   219   220     9    180.0     6.97333   2
218     217   219   221     9    180.0     6.97333   2
217     219   221   222     9    0.0       0.00000   0
217     219   221   223     9    0.0       1.11573   3
217     219   221   223     9    0.0       5.57867   1
217     219   221   223     9    0.0       5.57867   2
217     219   221   223     9    0.0       0.00000   0
217     219   221   238     9    180.0     0.09484   1
217     219   221   238     9    0.0       0.93443   2
217     219   221   238     9    0.0       1.51740   3
217     219   221   238     9    0.0       0.22315   4
217     219   221   238     9    0.0       0.00000   0
220     219   221   222     9    0.0       0.00000   0
220     219   221   223     9    0.0       0.00000   0
220     219   221   238     9    0.0       0.00000   0
219     221   223   224     9    0.0       0.43389   3
219     221   223   225     9    0.0       0.43389   3
219     221   223   226     9    0.0       0.00000   0
219     221   223   226     9    0.0       0.43389   3
222     221   223   224     9    0.0       0.43389   3
222     221   223   225     9    0.0       0.43389   3
222     221   223   226     9    0.0       0.43389   3
238     221   223   224     9    0.0       0.43389   3
238     221   223   225     9    0.0       0.43389   3
238     221   223   226     9    0.0       1.45045   1
238     221   223   226     9    0.0       0.43389   3
219     221   238   239     9    0.0       0.00000   0
219     221   238   240     9    360.0     0.54950   1
219     221   238   240     9    180.0     4.03059   2
219     221   238   240     9    180.0     1.33609   3
219     221   238   240     9    360.0     0.05327   4
219     221   238   240     9    360.0     0.01116   5
219     221   238   240     9    0.0       0.00000   0
222     221   238   239     9    0.0       2.23147   1
222     221   238   239     9    180.0     0.22315   3
222     221   238   239     9    0.0       0.00000   0
222     221   238   240     9    0.0       0.00000   0
223     221   238   239     9    0.0       0.00000   0
223     221   238   240     9    0.0       0.55787   1
223     221   238   240     9    0.0       0.55787   2
223     221   238   240     9    0.0       1.11573   3
223     221   238   240     9    0.0       0.00000   0
221     223   226   227     9    0.0       0.00000   0
221     223   226   236     9    0.0       0.00000   0
224     223   226   227     9    0.0       0.00000   0
224     223   226   236     9    0.0       0.00000   0
225     223   226   227     9    0.0       0.00000   0
225     223   226   236     9    0.0       0.00000   0
223     226   227   228     9    180.0     10.11133  2
223     226   227   229     9    180.0     10.11133  2
236     226   227   228     9    180.0     10.11133  2
236     226   227   229     9    180.0     10.11133  2
223     226   236   234     9    180.0     10.11133  2
223     226   236   237     9    180.0     10.11133  2
227     226   236   234     9    180.0     10.11133  2
227     226   236   237     9    180.0     10.11133  2
226     227   229   230     9    180.0     10.11133  2
226     227   229   231     9    180.0     10.11133  2
228     227   229   230     9    180.0     10.11133  2
228     227   229   231     9    180.0     10.11133  2
227     229   231   232     9    180.0     10.11133  2
227     229   231   234     9    180.0     10.11133  2
230     229   231   232     9    180.0     10.11133  2
230     229   231   234     9    180.0     10.11133  2
229     231   232   233     9    180.0     6.41547   2
234     231   232   233     9    180.0     6.41547   2
229     231   234   235     9    180.0     10.11133  2
229     231   234   236     9    180.0     10.11133  2
232     231   234   235     9    180.0     10.11133  2
232     231   234   236     9    180.0     10.11133  2
231     234   236   226     9    180.0     10.11133  2
231     234   236   237     9    180.0     10.11133  2
235     234   236   226     9    180.0     10.11133  2
235     234   236   237     9    180.0     10.11133  2
221     238   240   241     9    180.0     6.97333   2
221     238   240   242     9    180.0     6.97333   2
239     238   240   241     9    0.0       5.57867   1
239     238   240   241     9    180.0     6.97333   2
239     238   240   241     9    180.0     6.97333   2
239     238   240   242     9    180.0     6.97333   2
238     240   242   243     9    0.0       0.00000   0
238     240   242   244     9    0.0       1.11573   3
238     240   242   244     9    0.0       5.57867   1
238     240   242   244     9    0.0       5.57867   2
238     240   242   244     9    0.0       0.00000   0
238     240   242   253     9    180.0     0.09484   1
238     240   242   253     9    0.0       0.93443   2
238     240   242   253     9    0.0       1.51740   3
238     240   242   253     9    0.0       0.22315   4
238     240   242   253     9    0.0       0.00000   0
241     240   242   243     9    0.0       0.00000   0
241     240   242   244     9    0.0       0.00000   0
241     240   242   253     9    0.0       0.00000   0
240     242   244   245     9    0.0       0.43389   3
240     242   244   246     9    0.0       0.43389   3
240     242   244   247     9    0.0       0.27893   1
240     242   244   247     9    0.0       0.43389   3
243     242   244   245     9    0.0       0.43389   3
243     242   244   246     9    0.0       0.43389   3
243     242   244   247     9    0.0       0.43389   3
253     242   244   245     9    0.0       0.43389   3
253     242   244   246     9    0.0       0.43389   3
253     242   244   247     9    0.0       0.83680   1
253     242   244   247     9    0.0       0.43389   3
240     242   253   254     9    0.0       0.00000   0
240     242   253   255     9    360.0     0.54950   1
240     242   253   255     9    180.0     4.03059   2
240     242   253   255     9    180.0     1.33609   3
240     242   253   255     9    360.0     0.05327   4
240     242   253   255     9    360.0     0.01116   5
240     242   253   255     9    0.0       0.00000   0
243     242   253   254     9    0.0       2.23147   1
243     242   253   254     9    180.0     0.22315   3
243     242   253   254     9    0.0       0.00000   0
243     242   253   255     9    0.0       0.00000   0
244     242   253   254     9    0.0       0.00000   0
244     242   253   255     9    0.0       0.55787   1
244     242   253   255     9    0.0       0.55787   2
244     242   253   255     9    0.0       1.11573   3
244     242   253   255     9    0.0       0.00000   0
242     244   247   248     9    0.0       0.43235   3
242     244   247   249     9    0.0       0.43235   3
242     244   247   250     9    0.0       0.43235   3
245     244   247   248     9    0.0       0.43235   3
245     244   247   249     9    0.0       0.43235   3
245     244   247   250     9    0.0       0.43235   3
246     244   247   248     9    0.0       0.43235   3
246     244   247   249     9    0.0       0.43235   3
246     244   247   250     9    0.0       0.43235   3
244     247   250   251     9    180.0     1.67360   2
244     247   250   251     9    0.0       0.00000   0
244     247   250   252     9    180.0     1.67360   2
244     247   250   252     9    0.0       0.00000   0
248     247   250   251     9    0.0       0.00000   0
248     247   250   252     9    0.0       0.00000   0
249     247   250   251     9    0.0       0.00000   0
249     247   250   252     9    0.0       0.00000   0
242     253   255   256     9    180.0     6.97333   2
242     253   255   265     9    180.0     6.97333   2
254     253   255   256     9    180.0     6.97333   2
254     253   255   265     9    180.0     6.97333   2
253     255   256   257     9    0.0       0.00000   0
253     255   256   258     9    0.0       0.00000   0
253     255   256   259     9    0.0       1.11573   3
253     255   256   259     9    0.0       5.57867   1
253     255   256   259     9    0.0       5.57867   2
253     255   256   259     9    0.0       0.00000   0
265     255   256   257     9    0.0       0.00000   0
265     255   256   258     9    0.0       0.00000   0
265     255   256   259     9    0.0       0.00000   0
253     255   265   262     9    0.0       5.57867   1
253     255   265   262     9    0.0       5.57867   2
253     255   265   262     9    0.0       1.11573   3
253     255   265   262     9    0.0       0.00000   0
253     255   265   266     9    0.0       0.00000   0
253     255   265   267     9    0.0       0.75312   2
253     255   265   267     9    0.0       1.17152   3
253     255   265   267     9    0.0       0.00000   0
256     255   265   262     9    0.0       0.00000   0
256     255   265   266     9    0.0       0.00000   0
256     255   265   267     9    0.0       0.00000   0
255     256   259   260     9    0.0       0.43389   3
255     256   259   261     9    0.0       0.43389   3
255     256   259   262     9    0.0       0.43389   3
257     256   259   260     9    0.0       0.43389   3
257     256   259   261     9    0.0       0.43389   3
257     256   259   262     9    0.0       0.43389   3
258     256   259   260     9    0.0       0.43389   3
258     256   259   261     9    0.0       0.43389   3
258     256   259   262     9    0.0       0.43389   3
256     259   262   263     9    0.0       0.44629   3
256     259   262   263     9    0.0       0.43389   3
256     259   262   264     9    0.0       0.44629   3
256     259   262   264     9    0.0       0.43389   3
256     259   262   265     9    0.0       0.50208   3
256     259   262   265     9    180.0     0.55787   1
256     259   262   265     9    180.0     0.69733   2
256     259   262   265     9    0.0       0.43389   3
260     259   262   263     9    0.0       0.41840   3
260     259   262   263     9    0.0       0.41840   3
260     259   262   263     9    0.0       0.43389   3
260     259   262   264     9    0.0       0.41840   3
260     259   262   264     9    0.0       0.41840   3
260     259   262   264     9    0.0       0.43389   3
260     259   262   265     9    0.0       0.44629   3
260     259   262   265     9    0.0       0.43389   3
261     259   262   263     9    0.0       0.41840   3
261     259   262   263     9    0.0       0.41840   3
261     259   262   263     9    0.0       0.43389   3
261     259   262   264     9    0.0       0.41840   3
261     259   262   264     9    0.0       0.41840   3
261     259   262   264     9    0.0       0.43389   3
261     259   262   265     9    0.0       0.44629   3
261     259   262   265     9    0.0       0.43389   3
259     262   265   255     9    0.0       0.43389   3
259     262   265   266     9    0.0       0.43389   3
259     262   265   267     9    0.0       0.43389   3
263     262   265   255     9    0.0       0.43389   3
263     262   265   266     9    0.0       0.43389   3
263     262   265   267     9    0.0       0.43389   3
264     262   265   255     9    0.0       0.43389   3
264     262   265   266     9    0.0       0.43389   3
264     262   265   267     9    0.0       0.43389   3
255     265   267   268     9    0.0       0.00000   0
255     265   267   269     9    180.0     1.25520   1
255     265   267   269     9    180.0     4.40715   2
255     265   267   269     9    180.0     1.53413   3
255     265   267   269     9    0.0       0.00000   0
262     265   267   268     9    0.0       0.00000   0
262     265   267   269     9    0.0       0.55787   1
262     265   267   269     9    0.0       0.55787   2
262     265   267   269     9    0.0       1.11573   3
262     265   267   269     9    0.0       0.00000   0
266     265   267   268     9    0.0       2.23147   1
266     265   267   268     9    180.0     0.22315   3
266     265   267   268     9    0.0       0.00000   0
266     265   267   269     9    0.0       0.00000   0
265     267   269   270     9    180.0     6.97333   2
265     267   269   271     9    180.0     6.97333   2
268     267   269   270     9    0.0       5.57867   1
268     267   269   270     9    180.0     6.97333   2
268     267   269   270     9    180.0     6.97333   2
268     267   269   271     9    180.0     6.97333   2
267     269   271   272     9    0.0       0.00000   0
267     269   271   273     9    0.0       1.11573   3
267     269   271   273     9    0.0       5.57867   1
267     269   271   273     9    0.0       5.57867   2
267     269   271   273     9    0.0       0.00000   0
267     269   271   282     9    180.0     0.09484   1
267     269   271   282     9    0.0       0.93443   2
267     269   271   282     9    0.0       1.51740   3
267     269   271   282     9    0.0       0.22315   4
267     269   271   282     9    0.0       0.00000   0
270     269   271   272     9    0.0       0.00000   0
270     269   271   273     9    0.0       0.00000   0
270     269   271   282     9    0.0       0.00000   0
269     271   273   274     9    0.0       0.43389   3
269     271   273   275     9    0.0       0.43389   3
269     271   273   276     9    0.0       0.27893   1
269     271   273   276     9    0.0       0.43389   3
272     271   273   274     9    0.0       0.43389   3
272     271   273   275     9    0.0       0.43389   3
272     271   273   276     9    0.0       0.43389   3
282     271   273   274     9    0.0       0.43389   3
282     271   273   275     9    0.0       0.43389   3
282     271   273   276     9    0.0       0.83680   1
282     271   273   276     9    0.0       0.43389   3
269     271   282   283     9    0.0       0.00000   0
269     271   282   284     9    360.0     0.54950   1
269     271   282   284     9    180.0     4.03059   2
269     271   282   284     9    180.0     1.33609   3
269     271   282   284     9    360.0     0.05327   4
269     271   282   284     9    360.0     0.01116   5
269     271   282   284     9    0.0       0.00000   0
272     271   282   283     9    0.0       2.23147   1
272     271   282   283     9    180.0     0.22315   3
272     271   282   283     9    0.0       0.00000   0
272     271   282   284     9    0.0       0.00000   0
273     271   282   283     9    0.0       0.00000   0
273     271   282   284     9    0.0       0.55787   1
273     271   282   284     9    0.0       0.55787   2
273     271   282   284     9    0.0       1.11573   3
273     271   282   284     9    0.0       0.00000   0
271     273   276   277     9    0.0       0.43235   3
271     273   276   278     9    0.0       0.43235   3
271     273   276   279     9    0.0       0.43235   3
274     273   276   277     9    0.0       0.43235   3
274     273   276   278     9    0.0       0.43235   3
274     273   276   279     9    0.0       0.43235   3
275     273   276   277     9    0.0       0.43235   3
275     273   276   278     9    0.0       0.43235   3
275     273   276   279     9    0.0       0.43235   3
273     276   279   280     9    180.0     1.67360   2
273     276   279   280     9    0.0       0.00000   0
273     276   279   281     9    180.0     1.67360   2
273     276   279   281     9    0.0       0.00000   0
277     276   279   280     9    0.0       0.00000   0
277     276   279   281     9    0.0       0.00000   0
278     276   279   280     9    0.0       0.00000   0
278     276   279   281     9    0.0       0.00000   0
271     282   284   285     9    180.0     6.97333   2
271     282   284   286     9    180.0     6.97333   2
283     282   284   285     9    0.0       5.57867   1
283     282   284   285     9    180.0     6.97333   2
283     282   284   285     9    180.0     6.97333   2
283     282   284   286     9    180.0     6.97333   2
282     284   286   287     9    0.0       0.00000   0
282     284   286   288     9    0.0       1.11573   3
282     284   286   288     9    0.0       5.57867   1
282     284   286   288     9    0.0       5.57867   2
282     284   286   288     9    0.0       0.00000   0
282     284   286   292     9    180.0     0.09484   1
282     284   286   292     9    0.0       0.93443   2
282     284   286   292     9    0.0       1.51740   3
282     284   286   292     9    0.0       0.22315   4
282     284   286   292     9    0.0       0.00000   0
285     284   286   287     9    0.0       0.00000   0
285     284   286   288     9    0.0       0.00000   0
285     284   286   292     9    0.0       0.00000   0
284     286   288   289     9    0.0       0.43389   3
284     286   288   290     9    0.0       0.43389   3
284     286   288   291     9    0.0       0.43389   3
287     286   288   289     9    0.0       0.43389   3
287     286   288   290     9    0.0       0.43389   3
287     286   288   291     9    0.0       0.43389   3
292     286   288   289     9    0.0       0.43389   3
292     286   288   290     9    0.0       0.43389   3
292     286   288   291     9    0.0       0.43389   3
284     286   292   293     9    0.0       0.00000   0
284     286   292   294     9    0.0       0.00000   0
287     286   292   293     9    0.0       0.00000   0
287     286   292   294     9    0.0       0.00000   0
288     286   292   293     9    0.0       0.00000   0
288     286   292   294     9    0.0       0.00000   0
5        15    13    14     4    180.0     29.28800  2
7        11    10    12     4    180.0     29.28800  2
13       17    15    16     4    180.0     3.06827   2
13       15    17    27     4    90.0      1.11573   2
15       17    27    29     4    90.0      0.15900   3
15       17    27    29     4    90.0      0.06973   4
15       17    27    29     4    90.0      -0.03067  5
15       17    27    29     4    160.888   1.81307   1
15       17    27    29     4    90.0      -0.71127  1
15       17    27    29     4    90.0      0.20920   2
17       29    27    28     4    180.0     29.28800  2
19       24    22    23     4    180.0     29.28800  2
22       25    24    26     4    180.0     2.78933   2
27       31    29    30     4    180.0     3.06827   2
27       29    31    42     4    90.0      1.11573   2
29       31    42    44     4    160.888   1.81307   1
29       31    42    44     4    90.0      -0.71127  1
29       31    42    44     4    90.0      0.20920   2
29       31    42    44     4    90.0      0.15900   3
29       31    42    44     4    90.0      0.06973   4
29       31    42    44     4    90.0      -0.03067  5
31       44    42    43     4    180.0     29.28800  2
36       40    39    41     4    180.0     29.28800  2
42       46    44    45     4    180.0     3.06827   2
42       44    46    52     4    90.0      1.11573   2
44       46    52    54     4    90.0      0.20920   2
44       46    52    54     4    90.0      0.06973   4
44       46    52    54     4    90.0      -0.03067  5
44       46    52    54     4    90.0      0.15900   3
44       46    52    54     4    160.888   1.81307   1
44       46    52    54     4    90.0      -0.71127  1
46       54    52    53     4    180.0     29.28800  2
52       56    54    55     4    180.0     3.06827   2
52       54    56    73     4    90.0      1.11573   2
54       56    73    75     4    90.0      -0.71127  1
54       56    73    75     4    90.0      0.20920   2
54       56    73    75     4    90.0      0.15900   3
54       56    73    75     4    90.0      0.06973   4
54       56    73    75     4    90.0      -0.03067  5
54       56    73    75     4    160.888   1.81307   1
56       75    73    74     4    180.0     29.28800  2
58       61    71    62     4    180.0     3.06827   2
61       64    62    63     4    180.0     3.06827   2
61       69    71    72     4    180.0     3.06827   2
62       66    64    65     4    180.0     3.06827   2
64       69    66    67     4    180.0     3.06827   2
66       71    69    70     4    180.0     3.06827   2
73       77    75    76     4    180.0     3.06827   2
73       75    77    88     4    90.0      1.11573   2
75       77    88    90     4    160.888   1.81307   1
75       77    88    90     4    90.0      -0.71127  1
75       77    88    90     4    90.0      0.20920   2
75       77    88    90     4    90.0      0.06973   4
75       77    88    90     4    90.0      -0.03067  5
75       77    88    90     4    90.0      0.15900   3
77       90    88    89     4    180.0     29.28800  2
82       86    85    87     4    180.0     29.28800  2
88       92    90    91     4    180.0     3.06827   2
88       90    92   105     4    90.0      1.11573   2
90       92   105   107     4    90.0      -0.71127  1
90       92   105   107     4    90.0      0.20920   2
90       92   105   107     4    90.0      0.15900   3
90       92   105   107     4    90.0      0.06973   4
90       92   105   107     4    90.0      -0.03067  5
90       92   105   107     4    160.888   1.81307   1
92      107   105   106     4    180.0     29.28800  2
105     108   107   117     4    180.0     2.78933   2
117     121   119   120     4    180.0     29.28800  2
119     123   121   122     4    180.0     3.06827   2
119     121   123   130     4    90.0      1.11573   2
121     123   130   132     4    90.0      0.06973   4
121     123   130   132     4    90.0      -0.03067  5
121     123   130   132     4    90.0      0.15900   3
121     123   130   132     4    160.888   1.81307   1
121     123   130   132     4    90.0      -0.71127  1
121     123   130   132     4    90.0      0.20920   2
123     132   130   131     4    180.0     29.28800  2
130     134   132   133     4    180.0     3.06827   2
130     132   134   145     4    90.0      1.11573   2
132     134   145   147     4    90.0      -0.71127  1
132     134   145   147     4    90.0      0.20920   2
132     134   145   147     4    90.0      0.15900   3
132     134   145   147     4    90.0      0.06973   4
132     134   145   147     4    90.0      -0.03067  5
132     134   145   147     4    160.888   1.81307   1
134     147   145   146     4    180.0     29.28800  2
139     143   142   144     4    180.0     29.28800  2
145     149   147   148     4    180.0     3.06827   2
145     147   149   160     4    90.0      1.11573   2
147     149   160   162     4    90.0      -0.71127  1
147     149   160   162     4    90.0      0.20920   2
147     149   160   162     4    90.0      0.15900   3
147     149   160   162     4    90.0      0.06973   4
147     149   160   162     4    90.0      -0.03067  5
147     149   160   162     4    160.888   1.81307   1
149     162   160   161     4    180.0     29.28800  2
154     158   157   159     4    180.0     29.28800  2
160     164   162   163     4    180.0     3.06827   2
164     169   167   168     4    180.0     29.28800  2
167     171   169   170     4    180.0     3.06827   2
167     169   171   188     4    90.0      1.11573   2
169     171   188   190     4    160.888   1.81307   1
169     171   188   190     4    90.0      -0.71127  1
169     171   188   190     4    90.0      0.20920   2
169     171   188   190     4    90.0      0.15900   3
169     171   188   190     4    90.0      0.06973   4
169     171   188   190     4    90.0      -0.03067  5
171     190   188   189     4    180.0     29.28800  2
173     176   186   177     4    180.0     3.06827   2
176     179   177   178     4    180.0     3.06827   2
176     184   186   187     4    180.0     3.06827   2
177     181   179   180     4    180.0     3.06827   2
179     184   181   182     4    180.0     3.06827   2
181     186   184   185     4    180.0     3.06827   2
188     192   190   191     4    180.0     3.06827   2
188     190   192   205     4    90.0      1.11573   2
190     192   205   207     4    90.0      -0.71127  1
190     192   205   207     4    160.888   1.81307   1
190     192   205   207     4    90.0      0.20920   2
190     192   205   207     4    90.0      0.15900   3
190     192   205   207     4    90.0      0.06973   4
190     192   205   207     4    90.0      -0.03067  5
192     207   205   206     4    180.0     29.28800  2
197     202   200   201     4    180.0     29.28800  2
200     203   202   204     4    180.0     2.78933   2
205     209   207   208     4    180.0     3.06827   2
205     207   209   217     4    90.0      1.11573   2
207     209   217   219     4    160.888   1.81307   1
207     209   217   219     4    90.0      0.15900   3
207     209   217   219     4    90.0      0.06973   4
207     209   217   219     4    90.0      -0.03067  5
207     209   217   219     4    90.0      0.20920   2
207     209   217   219     4    90.0      -0.71127  1
209     219   217   218     4    180.0     29.28800  2
211     215   214   216     4    180.0     29.28800  2
217     221   219   220     4    180.0     3.06827   2
217     219   221   238     4    90.0      1.11573   2
219     221   238   240     4    90.0      0.20920   2
219     221   238   240     4    160.888   1.81307   1
219     221   238   240     4    90.0      -0.71127  1
219     221   238   240     4    90.0      0.15900   3
219     221   238   240     4    90.0      0.06973   4
219     221   238   240     4    90.0      -0.03067  5
221     240   238   239     4    180.0     29.28800  2
223     226   236   227     4    180.0     3.06827   2
226     229   227   228     4    180.0     3.06827   2
226     234   236   237     4    180.0     3.06827   2
227     231   229   230     4    180.0     3.06827   2
229     234   231   232     4    180.0     3.06827   2
231     236   234   235     4    180.0     3.06827   2
238     242   240   241     4    180.0     3.06827   2
238     240   242   253     4    90.0      1.11573   2
240     242   253   255     4    90.0      0.20920   2
240     242   253   255     4    90.0      0.15900   3
240     242   253   255     4    90.0      0.06973   4
240     242   253   255     4    90.0      -0.03067  5
240     242   253   255     4    160.888   1.81307   1
240     242   253   255     4    90.0      -0.71127  1
242     255   253   254     4    180.0     29.28800  2
247     251   250   252     4    180.0     29.28800  2
253     256   255   265     4    180.0     2.78933   2
265     269   267   268     4    180.0     29.28800  2
267     271   269   270     4    180.0     3.06827   2
267     269   271   282     4    90.0      1.11573   2
269     271   282   284     4    160.888   1.81307   1
269     271   282   284     4    90.0      -0.71127  1
269     271   282   284     4    90.0      0.20920   2
269     271   282   284     4    90.0      0.15900   3
269     271   282   284     4    90.0      0.06973   4
269     271   282   284     4    90.0      -0.03067  5
271     284   282   283     4    180.0     29.28800  2
276     280   279   281     4    180.0     29.28800  2
282     286   284   285     4    180.0     3.06827   2
282     284   286   292     4    90.0      1.11573   2
286     293   292   294     4    180.0     29.28800  2

[ moleculetype ]
;name            nrexcl
 L47              3

[ atoms ]
     1        sc3      1    L47      C      1  -0.139703     12.010
     2        shc      1    L47      H      2   0.066980      1.008
     3        shc      1    L47     H1      3   0.066980      1.008
     4        shc      1    L47     H2      4   0.066980      1.008
     5         sc      1    L47     C1      5   0.556116     12.010
     6         so      1    L47      O      6  -0.456503     16.000
     7         sn      1    L47      N      7  -0.311902     14.010
     8        sc3      1    L47     C2      8   0.066953     12.010
     9        sh1      1    L47     H3      9   0.054869      1.008
    10        sh1      1    L47     H4     10   0.054869      1.008
    11        sc3      1    L47     C3     11  -0.032742     12.010
    12        shc      1    L47     H5     12   0.064258      1.008
    13        shc      1    L47     H6     13   0.064258      1.008
    14        sca      1    L47     C4     14  -0.136600     12.010
    15        sca      1    L47     C5     15   0.141744     12.010
    16        sca      1    L47     C6     16  -0.151052     12.010
    17        sha      1    L47     H7     17   0.155951      1.008
    18        sca      1    L47     C7     18   0.018779     12.010
    19        sha      1    L47     H8     19   0.116759      1.008
    20        sca      1    L47     C8     20  -0.407024     12.010
    21        sca      1    L47     C9     21   0.031027     12.010
    22        sha      1    L47     H9     22   0.131456      1.008
    23        ssy      1    L47      S     23   1.243688     32.060
    24         so      1    L47     O1     24  -0.545256     16.000
    25         so      1    L47     O2     25  -0.545256     16.000
    26        sn3      1    L47     N1     26  -0.649523     14.010
    27        sc3      1    L47    C10     27   0.159870     12.010
    28        sh1      1    L47    H10     28   0.072831      1.008
    29        sh1      1    L47    H11     29   0.072831      1.008
    30        sc3      1    L47    C11     30  -0.114636     12.010
    31        shc      1    L47    H12     31   0.076914      1.008
    32        shc      1    L47    H13     32   0.076914      1.008
    33        sc3      1    L47    C12     33   0.092917     12.010
    34        shx      1    L47    H14     34   0.081405      1.008
    35        shx      1    L47    H15     35   0.081405      1.008
    36        sn4      1    L47     N2     36  -0.622170     14.010
    37        shn      1    L47    H16     37   0.384815      1.008
    38        shn      1    L47    H17     38   0.384815      1.008
    39        sc3      1    L47    C13     39   0.057808     12.010
    40        shx      1    L47    H18     40   0.084262      1.008
    41        shx      1    L47    H19     41   0.084262      1.008
    42        sc3      1    L47    C14     42   0.172117     12.010
    43        sh1      1    L47    H20     43   0.072015      1.008
    44        sh1      1    L47    H21     44   0.072015      1.008

[ bonds ]
     1      2   1    1.0969e-01    2.7665e+05 ;      C - H     
     1      3   1    1.0969e-01    2.7665e+05 ;      C - H1    
     1      4   1    1.0969e-01    2.7665e+05 ;      C - H2    
     1      5   1    1.5241e-01    2.6192e+05 ;      C - C1    
     5      6   1    1.2183e-01    5.3363e+05 ;     C1 - O     
     5      7   1    1.3789e-01    3.5782e+05 ;     C1 - N     
     7      8   1    1.4619e-01    2.7506e+05 ;      N - C2    
     7     15   1    1.4121e-01    3.2150e+05 ;      N - C5    
     8      9   1    1.0969e-01    2.7665e+05 ;     C2 - H3    
     8     10   1    1.0969e-01    2.7665e+05 ;     C2 - H4    
     8     11   1    1.5375e-01    2.5179e+05 ;     C2 - C3    
    11     12   1    1.0969e-01    2.7665e+05 ;     C3 - H5    
    11     13   1    1.0969e-01    2.7665e+05 ;     C3 - H6    
    11     14   1    1.5156e-01    2.6861e+05 ;     C3 - C4    
    14     15   1    1.3984e-01    3.8585e+05 ;     C4 - C5    
    14     21   1    1.3984e-01    3.8585e+05 ;     C4 - C9    
    15     16   1    1.3984e-01    3.8585e+05 ;     C5 - C6    
    16     17   1    1.0860e-01    2.8937e+05 ;     C6 - H7    
    16     18   1    1.3984e-01    3.8585e+05 ;     C6 - C7    
    18     19   1    1.0860e-01    2.8937e+05 ;     C7 - H8    
    18     20   1    1.3984e-01    3.8585e+05 ;     C7 - C8    
    20     21   1    1.3984e-01    3.8585e+05 ;     C8 - C9    
    20     23   1    1.7909e-01    2.0368e+05 ;     C8 - S     
    21     22   1    1.0860e-01    2.8937e+05 ;     C9 - H9    
    23     24   1    1.4660e-01    4.1254e+05 ;      S - O1    
    23     25   1    1.4660e-01    4.1254e+05 ;      S - O2    
    23     26   1    1.6962e-01    2.4886e+05 ;      S - N1    
    26     27   1    1.4647e-01    2.7271e+05 ;     N1 - C10   
    26     42   1    1.4647e-01    2.7271e+05 ;     N1 - C14   
    27     28   1    1.0969e-01    2.7665e+05 ;    C10 - H10   
    27     29   1    1.0969e-01    2.7665e+05 ;    C10 - H11   
    27     30   1    1.5375e-01    2.5179e+05 ;    C10 - C11   
    30     31   1    1.0969e-01    2.7665e+05 ;    C11 - H12   
    30     32   1    1.0969e-01    2.7665e+05 ;    C11 - H13   
    30     33   1    1.5375e-01    2.5179e+05 ;    C11 - C12   
    33     34   1    1.0910e-01    2.8342e+05 ;    C12 - H14   
    33     35   1    1.0910e-01    2.8342e+05 ;    C12 - H15   
    33     36   1    1.5110e-01    2.3707e+05 ;    C12 - N2    
    36     37   1    1.0304e-01    3.1229e+05 ;     N2 - H16   
    36     38   1    1.0304e-01    3.1229e+05 ;     N2 - H17   
    36     39   1    1.5110e-01    2.3707e+05 ;     N2 - C13   
    39     40   1    1.0910e-01    2.8342e+05 ;    C13 - H18   
    39     41   1    1.0910e-01    2.8342e+05 ;    C13 - H19   
    39     42   1    1.5375e-01    2.5179e+05 ;    C13 - C14   
    42     43   1    1.0969e-01    2.7665e+05 ;    C14 - H20   
    42     44   1    1.0969e-01    2.7665e+05 ;    C14 - H21   


[ pairs ]
     1      8      1 ;      C - C2    
     1     15      1 ;      C - C5    
     2      6      1 ;      H - O     
     2      7      1 ;      H - N     
     3      6      1 ;     H1 - O     
     3      7      1 ;     H1 - N     
     4      6      1 ;     H2 - O     
     4      7      1 ;     H2 - N     
     5      9      1 ;     C1 - H3    
     5     10      1 ;     C1 - H4    
     5     11      1 ;     C1 - C3    
     5     14      1 ;     C1 - C4    
     5     16      1 ;     C1 - C6    
     6      8      1 ;      O - C2    
     6     15      1 ;      O - C5    
     7     12      1 ;      N - H5    
     7     13      1 ;      N - H6    
     7     17      1 ;      N - H7    
     7     18      1 ;      N - C7    
     7     21      1 ;      N - C9    
     8     16      1 ;     C2 - C6    
     8     21      1 ;     C2 - C9    
     9     12      1 ;     H3 - H5    
     9     13      1 ;     H3 - H6    
     9     14      1 ;     H3 - C4    
     9     15      1 ;     H3 - C5    
    10     12      1 ;     H4 - H5    
    10     13      1 ;     H4 - H6    
    10     14      1 ;     H4 - C4    
    10     15      1 ;     H4 - C5    
    11     16      1 ;     C3 - C6    
    11     20      1 ;     C3 - C8    
    11     22      1 ;     C3 - H9    
    12     15      1 ;     H5 - C5    
    12     21      1 ;     H5 - C9    
    13     15      1 ;     H6 - C5    
    13     21      1 ;     H6 - C9    
    14     17      1 ;     C4 - H7    
    14     18      1 ;     C4 - C7    
    14     23      1 ;     C4 - S     
    15     19      1 ;     C5 - H8    
    15     20      1 ;     C5 - C8    
    15     22      1 ;     C5 - H9    
    16     21      1 ;     C6 - C9    
    16     23      1 ;     C6 - S     
    17     19      1 ;     H7 - H8    
    17     20      1 ;     H7 - C8    
    18     22      1 ;     C7 - H9    
    18     24      1 ;     C7 - O1    
    18     25      1 ;     C7 - O2    
    18     26      1 ;     C7 - N1    
    19     21      1 ;     H8 - C9    
    19     23      1 ;     H8 - S     
    20     27      1 ;     C8 - C10   
    20     42      1 ;     C8 - C14   
    21     24      1 ;     C9 - O1    
    21     25      1 ;     C9 - O2    
    21     26      1 ;     C9 - N1    
    22     23      1 ;     H9 - S     
    23     28      1 ;      S - H10   
    23     29      1 ;      S - H11   
    23     30      1 ;      S - C11   
    23     39      1 ;      S - C13   
    23     43      1 ;      S - H20   
    23     44      1 ;      S - H21   
    24     27      1 ;     O1 - C10   
    24     42      1 ;     O1 - C14   
    25     27      1 ;     O2 - C10   
    25     42      1 ;     O2 - C14   
    26     31      1 ;     N1 - H12   
    26     32      1 ;     N1 - H13   
    26     33      1 ;     N1 - C12   
    26     36      1 ;     N1 - N2    
    26     40      1 ;     N1 - H18   
    26     41      1 ;     N1 - H19   
    27     34      1 ;    C10 - H14   
    27     35      1 ;    C10 - H15   
    27     36      1 ;    C10 - N2    
    27     39      1 ;    C10 - C13   
    27     43      1 ;    C10 - H20   
    27     44      1 ;    C10 - H21   
    28     31      1 ;    H10 - H12   
    28     32      1 ;    H10 - H13   
    28     33      1 ;    H10 - C12   
    28     42      1 ;    H10 - C14   
    29     31      1 ;    H11 - H12   
    29     32      1 ;    H11 - H13   
    29     33      1 ;    H11 - C12   
    29     42      1 ;    H11 - C14   
    30     37      1 ;    C11 - H16   
    30     38      1 ;    C11 - H17   
    30     39      1 ;    C11 - C13   
    30     42      1 ;    C11 - C14   
    31     34      1 ;    H12 - H14   
    31     35      1 ;    H12 - H15   
    31     36      1 ;    H12 - N2    
    32     34      1 ;    H13 - H14   
    32     35      1 ;    H13 - H15   
    32     36      1 ;    H13 - N2    
    33     40      1 ;    C12 - H18   
    33     41      1 ;    C12 - H19   
    33     42      1 ;    C12 - C14   
    34     37      1 ;    H14 - H16   
    34     38      1 ;    H14 - H17   
    34     39      1 ;    H14 - C13   
    35     37      1 ;    H15 - H16   
    35     38      1 ;    H15 - H17   
    35     39      1 ;    H15 - C13   
    36     43      1 ;     N2 - H20   
    36     44      1 ;     N2 - H21   
    37     40      1 ;    H16 - H18   
    37     41      1 ;    H16 - H19   
    37     42      1 ;    H16 - C14   
    38     40      1 ;    H17 - H18   
    38     41      1 ;    H17 - H19   
    38     42      1 ;    H17 - C14   
    40     43      1 ;    H18 - H20   
    40     44      1 ;    H18 - H21   
    41     43      1 ;    H19 - H20   
    41     44      1 ;    H19 - H21   


[ angles ]
     1      5      6      1    1.2320e+02    5.6400e+02 ;      C - C1     - O     
     1      5      7      1    1.1518e+02    5.5898e+02 ;      C - C1     - N     
     2      1      3      1    1.0758e+02    3.2970e+02 ;      H - C      - H1    
     2      1      4      1    1.0758e+02    3.2970e+02 ;      H - C      - H2    
     2      1      5      1    1.0877e+02    3.9246e+02 ;      H - C      - C1    
     3      1      4      1    1.0758e+02    3.2970e+02 ;     H1 - C      - H2    
     3      1      5      1    1.0877e+02    3.9246e+02 ;     H1 - C      - C1    
     4      1      5      1    1.0877e+02    3.9246e+02 ;     H2 - C      - C1    
     5      7      8      1    1.2069e+02    5.3053e+02 ;     C1 - N      - C2    
     5      7     15      1    1.2371e+02    5.3388e+02 ;     C1 - N      - C5    
     6      5      7      1    1.2305e+02    6.2091e+02 ;      O - C1     - N     
     7      8      9      1    1.0888e+02    4.1673e+02 ;      N - C2     - H3    
     7      8     10      1    1.0888e+02    4.1673e+02 ;      N - C2     - H4    
     7      8     11      1    1.1161e+02    5.5145e+02 ;      N - C2     - C3    
     7     15     14      1    1.2019e+02    5.6819e+02 ;      N - C5     - C4    
     7     15     16      1    1.2019e+02    5.6819e+02 ;      N - C5     - C6    
     8      7     15      1    1.1983e+02    5.2718e+02 ;     C2 - N      - C5    
     8     11     12      1    1.0980e+02    3.8744e+02 ;     C2 - C3     - H5    
     8     11     13      1    1.0980e+02    3.8744e+02 ;     C2 - C3     - H6    
     8     11     14      1    1.1207e+02    5.2802e+02 ;     C2 - C3     - C4    
     9      8     10      1    1.0846e+02    3.2803e+02 ;     H3 - C2     - H4    
     9      8     11      1    1.0956e+02    3.8828e+02 ;     H3 - C2     - C3    
    10      8     11      1    1.0956e+02    3.8828e+02 ;     H4 - C2     - C3    
    11     14     15      1    1.2077e+02    5.3137e+02 ;     C3 - C4     - C5    
    11     14     21      1    1.2077e+02    5.3137e+02 ;     C3 - C4     - C9    
    12     11     13      1    1.0758e+02    3.2970e+02 ;     H5 - C3     - H6    
    12     11     14      1    1.1047e+02    3.9162e+02 ;     H5 - C3     - C4    
    13     11     14      1    1.1047e+02    3.9162e+02 ;     H6 - C3     - C4    
    14     15     16      1    1.2002e+02    5.5731e+02 ;     C4 - C5     - C6    
    14     21     20      1    1.2002e+02    5.5731e+02 ;     C4 - C9     - C8    
    14     21     22      1    1.1988e+02    4.0334e+02 ;     C4 - C9     - H9    
    15     14     21      1    1.2002e+02    5.5731e+02 ;     C5 - C4     - C9    
    15     16     17      1    1.1988e+02    4.0334e+02 ;     C5 - C6     - H7    
    15     16     18      1    1.2002e+02    5.5731e+02 ;     C5 - C6     - C7    
    16     18     19      1    1.1988e+02    4.0334e+02 ;     C6 - C7     - H8    
    16     18     20      1    1.2002e+02    5.5731e+02 ;     C6 - C7     - C8    
    17     16     18      1    1.1988e+02    4.0334e+02 ;     H7 - C6     - C7    
    18     20     21      1    1.2002e+02    5.5731e+02 ;     C7 - C8     - C9    
    18     20     23      1    1.1942e+02    5.1463e+02 ;     C7 - C8     - S     
    19     18     20      1    1.1988e+02    4.0334e+02 ;     H8 - C7     - C8    
    20     21     22      1    1.1988e+02    4.0334e+02 ;     C8 - C9     - H9    
    20     23     24      1    1.0835e+02    5.5061e+02 ;     C8 - S      - O1    
    20     23     25      1    1.0835e+02    5.5061e+02 ;     C8 - S      - O2    
    20     23     26      1    1.0244e+02    5.3555e+02 ;     C8 - S      - N1    
    21     20     23      1    1.1942e+02    5.1463e+02 ;     C9 - C8     - S     
    23     26     27      1    1.1525e+02    5.2300e+02 ;      S - N1     - C10   
    23     26     42      1    1.1525e+02    5.2300e+02 ;      S - N1     - C14   
    24     23     25      1    1.2141e+02    6.0668e+02 ;     O1 - S      - O2    
    24     23     26      1    1.0713e+02    5.8911e+02 ;     O1 - S      - N1    
    25     23     26      1    1.0713e+02    5.8911e+02 ;     O2 - S      - N1    
    26     27     28      1    1.0988e+02    4.1422e+02 ;     N1 - C10    - H10   
    26     27     29      1    1.0988e+02    4.1422e+02 ;     N1 - C10    - H11   
    26     27     30      1    1.1104e+02    5.5229e+02 ;     N1 - C10    - C11   
    26     42     39      1    1.1104e+02    5.5229e+02 ;     N1 - C14    - C13   
    26     42     43      1    1.0988e+02    4.1422e+02 ;     N1 - C14    - H20   
    26     42     44      1    1.0988e+02    4.1422e+02 ;     N1 - C14    - H21   
    27     26     42      1    1.1235e+02    5.3388e+02 ;    C10 - N1     - C14   
    27     30     31      1    1.0980e+02    3.8744e+02 ;    C10 - C11    - H12   
    27     30     32      1    1.0980e+02    3.8744e+02 ;    C10 - C11    - H13   
    27     30     33      1    1.1151e+02    5.2635e+02 ;    C10 - C11    - C12   
    28     27     29      1    1.0846e+02    3.2803e+02 ;    H10 - C10    - H11   
    28     27     30      1    1.0956e+02    3.8828e+02 ;    H10 - C10    - C11   
    29     27     30      1    1.0956e+02    3.8828e+02 ;    H11 - C10    - C11   
    30     33     34      1    1.1056e+02    3.8660e+02 ;    C11 - C12    - H14   
    30     33     35      1    1.1056e+02    3.8660e+02 ;    C11 - C12    - H15   
    30     33     36      1    1.1421e+02    5.3723e+02 ;    C11 - C12    - N2    
    31     30     32      1    1.0758e+02    3.2970e+02 ;    H12 - C11    - H13   
    31     30     33      1    1.0980e+02    3.8744e+02 ;    H12 - C11    - C12   
    32     30     33      1    1.0980e+02    3.8744e+02 ;    H13 - C11    - C12   
    33     36     37      1    1.1011e+02    3.8409e+02 ;    C12 - N2     - H16   
    33     36     38      1    1.1011e+02    3.8409e+02 ;    C12 - N2     - H17   
    33     36     39      1    1.0966e+02    5.2384e+02 ;    C12 - N2     - C13   
    34     33     35      1    1.0975e+02    3.2803e+02 ;    H14 - C12    - H15   
    34     33     36      1    1.0801e+02    4.0668e+02 ;    H14 - C12    - N2    
    35     33     36      1    1.0801e+02    4.0668e+02 ;    H15 - C12    - N2    
    36     39     40      1    1.0801e+02    4.0668e+02 ;     N2 - C13    - H18   
    36     39     41      1    1.0801e+02    4.0668e+02 ;     N2 - C13    - H19   
    36     39     42      1    1.1421e+02    5.3723e+02 ;     N2 - C13    - C14   
    37     36     38      1    1.0830e+02    3.3974e+02 ;    H16 - N2     - H17   
    37     36     39      1    1.1011e+02    3.8409e+02 ;    H16 - N2     - C13   
    38     36     39      1    1.1011e+02    3.8409e+02 ;    H17 - N2     - C13   
    39     42     43      1    1.0956e+02    3.8828e+02 ;    C13 - C14    - H20   
    39     42     44      1    1.0956e+02    3.8828e+02 ;    C13 - C14    - H21   
    40     39     41      1    1.0975e+02    3.2803e+02 ;    H18 - C13    - H19   
    40     39     42      1    1.1056e+02    3.8660e+02 ;    H18 - C13    - C14   
    41     39     42      1    1.1056e+02    3.8660e+02 ;    H19 - C13    - C14   
    43     42     44      1    1.0846e+02    3.2803e+02 ;    H20 - C14    - H21   


[ dihedrals ]
1         5     7     8     9    0.00      0.00000   0
1         5     7     8     9    180.00    4.18400   1
1         5     7    15     9    180.00    6.97333   2
2         1     5     6     9    0.00      0.00000   0
2         1     5     6     9    0.00      2.23147   1
2         1     5     6     9    180.00    0.22315   3
2         1     5     7     9    180.00    0.00000   2
3         1     5     6     9    0.00      0.00000   0
3         1     5     6     9    0.00      2.23147   1
3         1     5     6     9    180.00    0.22315   3
3         1     5     7     9    180.00    0.00000   2
4         1     5     6     9    0.00      0.00000   0
4         1     5     6     9    0.00      2.23147   1
4         1     5     6     9    180.00    0.22315   3
4         1     5     7     9    180.00    0.00000   2
5         7     8     9     9    0.00      0.00000   0
5         7     8    10     9    0.00      0.00000   0
5         7     8    11     9    0.00      0.00000   0
5         7     8    11     9    0.00      1.47835   1
5         7     8    11     9    180.00    0.41840   3
5         7     8    11     9    180.00    1.39467   4
5         7    15    14     9    180.00    1.25520   2
5         7    15    16     9    180.00    1.25520   2
6         5     7     8     9    180.00    6.97333   2
6         5     7    15     9    180.00    6.97333   2
7         8    11    12     9    0.00      0.43389   3
7         8    11    13     9    0.00      0.43389   3
7         8    11    14     9    0.00      0.43389   3
7        15    14    11     9    180.00    10.11133  2
7        15    14    21     9    180.00    10.11133  2
7        15    16    17     9    180.00    10.11133  2
7        15    16    18     9    180.00    10.11133  2
8         7    15    14     9    180.00    1.25520   2
8         7    15    16     9    180.00    1.25520   2
8        11    14    15     9    0.00      0.00000   0
8        11    14    21     9    0.00      0.00000   0
9         8     7    15     9    0.00      0.00000   0
9         8    11    12     9    0.00      0.43389   3
9         8    11    13     9    0.00      0.43389   3
9         8    11    14     9    0.00      0.43389   3
10        8     7    15     9    0.00      0.00000   0
10        8    11    12     9    0.00      0.43389   3
10        8    11    13     9    0.00      0.43389   3
10        8    11    14     9    0.00      0.43389   3
11        8     7    15     9    0.00      0.00000   0
11       14    15    16     9    180.00    10.11133  2
11       14    21    20     9    180.00    10.11133  2
11       14    21    22     9    180.00    10.11133  2
12       11    14    15     9    0.00      0.00000   0
12       11    14    21     9    0.00      0.00000   0
13       11    14    15     9    0.00      0.00000   0
13       11    14    21     9    0.00      0.00000   0
14       15    16    17     9    180.00    10.11133  2
14       15    16    18     9    180.00    10.11133  2
14       21    20    18     9    180.00    10.11133  2
14       21    20    23     9    180.00    10.11133  2
15       14    21    20     9    180.00    10.11133  2
15       14    21    22     9    180.00    10.11133  2
15       16    18    19     9    180.00    10.11133  2
15       16    18    20     9    180.00    10.11133  2
16       15    14    21     9    180.00    10.11133  2
16       18    20    21     9    180.00    10.11133  2
16       18    20    23     9    180.00    10.11133  2
17       16    18    19     9    180.00    10.11133  2
17       16    18    20     9    180.00    10.11133  2
18       20    21    22     9    180.00    10.11133  2
18       20    23    24     9    180.00    3.62613   2
18       20    23    25     9    180.00    3.62613   2
18       20    23    26     9    180.00    3.62613   2
19       18    20    21     9    180.00    10.11133  2
19       18    20    23     9    180.00    10.11133  2
20       23    26    27     9    0.00      8.73991   2
20       23    26    42     9    0.00      8.73991   2
21       20    23    24     9    180.00    3.62613   2
21       20    23    25     9    180.00    3.62613   2
21       20    23    26     9    180.00    3.62613   2
22       21    20    23     9    180.00    10.11133  2
23       26    27    28     9    0.00      0.83680   3
23       26    27    29     9    0.00      0.83680   3
23       26    27    30     9    0.00      0.83680   3
23       26    42    39     9    0.00      0.83680   3
23       26    42    43     9    0.00      0.83680   3
23       26    42    44     9    0.00      0.83680   3
24       23    26    27     9    0.00      8.73991   2
24       23    26    42     9    0.00      8.73991   2
25       23    26    27     9    0.00      8.73991   2
25       23    26    42     9    0.00      8.73991   2
26       27    30    31     9    0.00      0.43389   3
26       27    30    32     9    0.00      0.43389   3
26       27    30    33     9    0.00      0.43389   3
26       42    39    36     9    0.00      0.43389   3
26       42    39    40     9    0.00      0.43389   3
26       42    39    41     9    0.00      0.43389   3
27       26    42    39     9    0.00      0.83680   3
27       26    42    39     9    180.00    1.33888   2
27       26    42    43     9    0.00      0.83680   3
27       26    42    44     9    0.00      0.83680   3
27       30    33    34     9    0.00      0.43389   3
27       30    33    35     9    0.00      0.43389   3
27       30    33    36     9    0.00      0.43389   3
28       27    26    42     9    0.00      0.83680   3
28       27    30    31     9    0.00      0.43389   3
28       27    30    32     9    0.00      0.43389   3
28       27    30    33     9    0.00      0.43389   3
29       27    26    42     9    0.00      0.83680   3
29       27    30    31     9    0.00      0.43389   3
29       27    30    32     9    0.00      0.43389   3
29       27    30    33     9    0.00      0.43389   3
30       27    26    42     9    0.00      0.83680   3
30       27    26    42     9    180.00    1.33888   2
30       33    36    37     9    0.00      0.43389   3
30       33    36    38     9    0.00      0.43389   3
30       33    36    39     9    0.00      0.43389   3
31       30    33    34     9    0.00      0.43389   3
31       30    33    35     9    0.00      0.43389   3
31       30    33    36     9    0.00      0.43389   3
32       30    33    34     9    0.00      0.43389   3
32       30    33    35     9    0.00      0.43389   3
32       30    33    36     9    0.00      0.43389   3
33       36    39    40     9    0.00      0.43389   3
33       36    39    41     9    0.00      0.43389   3
33       36    39    42     9    0.00      0.43389   3
34       33    36    37     9    0.00      0.43389   3
34       33    36    38     9    0.00      0.43389   3
34       33    36    39     9    0.00      0.43389   3
35       33    36    37     9    0.00      0.43389   3
35       33    36    38     9    0.00      0.43389   3
35       33    36    39     9    0.00      0.43389   3
36       39    42    43     9    0.00      0.43389   3
36       39    42    44     9    0.00      0.43389   3
37       36    39    40     9    0.00      0.43389   3
37       36    39    41     9    0.00      0.43389   3
37       36    39    42     9    0.00      0.43389   3
38       36    39    40     9    0.00      0.43389   3
38       36    39    41     9    0.00      0.43389   3
38       36    39    42     9    0.00      0.43389   3
40       39    42    43     9    0.00      0.43389   3
40       39    42    44     9    0.00      0.43389   3
41       39    42    43     9    0.00      0.43389   3
41       39    42    44     9    0.00      0.43389   3
1         7     5     6     4    180.00    29.28800  2
5         8     7    15     4    180.00    3.06827   2
14       16    15     7     4    180.00    3.06827   2
14       20    21    22     4    180.00    3.06827   2
15       18    16    17     4    180.00    3.06827   2
15       21    14    11     4    180.00    3.06827   2
16       20    18    19     4    180.00    3.06827   2
18       21    20    23     4    180.00    3.06827   2

[ moleculetype ]
; molname	nrexcl
SOL		1

[ atoms ]
1       OW_tip4pd    	1	SOL	 OW		1	0        16.00000
2	HW       	1	SOL	HW2		1	0.5900 	  1.00800
3	HW	        1	SOL	HW3		1	0.5900 	  1.00800
4	MW		1	SOL	MW4		1      -1.1800    0.00000


[ settles ]
1	1	0.09572	0.15139


[ virtual_sites3 ]
4	1	2	3	1	0.131937768	0.131937768


[ exclusions ]
1	2	3	4
2	1	3	4
3	1	2	4
4	1	2	3




[ moleculetype ]
; molname       nrexcl
IB+             1       ; big positive ion

[ atoms ]
   1    IB                  1       IB+            IB      1    1.00000



[ moleculetype ]
; molname       nrexcl
CA              1

[ atoms ]
   1    C0                  1       CA             CA      1    2.00000



[ moleculetype ]
; molname       nrexcl
CL              1

[ atoms ]
   1    Cl                  1       CL             CL      1   -1.00000



[ moleculetype ]
; molname       nrexcl
NA              1

[ atoms ]
   1    Na                  1       NA             NA      1    1.00000



[ moleculetype ]
; molname       nrexcl
MG              1

[ atoms ]
   1    MG                  1       MG             MG      1    2.00000



[ moleculetype ]
; molname       nrexcl
K               1

[ atoms ]
   1    K                   1       K              K       1    1.00000



[ moleculetype ]
; molname       nrexcl
RB              1

[ atoms ]
   1    Rb                  1       RB             RB      1    1.00000



[ moleculetype ]
; molname       nrexcl
CS              1

[ atoms ]
   1    Cs                  1       CS             CS      1    1.00000



[ moleculetype ]
; molname       nrexcl
LI              1

[ atoms ]
   1    Li                  1       LI             LI      1    1.00000



[ moleculetype ]
; molname       nrexcl
ZN              1

[ atoms ]
   1    Zn                  1       ZN             ZN      1    2.00000


 [ system ] 
; Name
A-SYNC WITH LIG-47 in water

 [ molecules ] 
; Compound        #mols
Protein_chain_A     1
L47		    1
SOL         8739
NA               7

