 [ defaults ] 
; nbfunc        comb-rule       gen-pairs       fudgeLJ fudgeQQ
1               2               yes             0.5     0.8333

[ atomtypes ]
Br           35      79.90   0.0000  A  0.00000e+00  0.00000e+00
sBr          Br      79.90   0.0000  A  0.00000e+00  0.00000e+00
C            6       12.01   0.0000  A  3.39967e-01  3.59824e-01
sC           C       12.01   0.0000  A  3.39967e-01  3.20463e-01
C6           6       12.01   0.0000  A  3.39967e-01  3.59824e-01
sC6          C6      12.01   0.0000  A  3.39967e-01  3.20463e-01
C5           6       12.01   0.0000  A  3.39967e-01  3.59824e-01
sC5          C5      12.01   0.0000  A  3.39967e-01  3.20463e-01
CA           6       12.01   0.0000  A  3.39967e-01  3.59824e-01
sCA          CA      12.01   0.0000  A  3.39967e-01  3.20463e-01
CB           6       12.01   0.0000  A  3.39967e-01  3.59824e-01
sCB          CB      12.01   0.0000  A  3.39967e-01  3.20463e-01
CC           6       12.01   0.0000  A  3.39967e-01  3.59824e-01
sCC          CC      12.01   0.0000  A  3.39967e-01  3.20463e-01
CK           6       12.01   0.0000  A  3.39967e-01  3.59824e-01
sCK          CK      12.01   0.0000  A  3.39967e-01  3.20463e-01
CM           6       12.01   0.0000  A  3.39967e-01  3.59824e-01
sCM          CM      12.01   0.0000  A  3.39967e-01  3.20463e-01
CN           6       12.01   0.0000  A  3.39967e-01  3.59824e-01
sCN          CN      12.01   0.0000  A  3.39967e-01  3.20463e-01
CQ           6       12.01   0.0000  A  3.39967e-01  3.59824e-01
sCQ          CQ      12.01   0.0000  A  3.39967e-01  3.20463e-01
CR           6       12.01   0.0000  A  3.39967e-01  3.59824e-01
sCR          CR      12.01   0.0000  A  3.39967e-01  3.20463e-01
CT           6       12.01   0.0000  A  3.39967e-01  4.57730e-01
sCT          CT      12.01   0.0000  A  3.39967e-01  4.07660e-01
C1           6       12.01   0.0000  A  3.39967e-01  4.57730e-01
sC1          C1      12.01   0.0000  A  3.39967e-01  4.07660e-01
C3           6       12.01   0.0000  A  3.39967e-01  4.57730e-01
sC3          C3      12.01   0.0000  A  3.39967e-01  4.07660e-01
C4           6       12.01   0.0000  A  3.39967e-01  4.57730e-01
sC4          C4      12.01   0.0000  A  3.39967e-01  4.07660e-01
C7           6       12.01   0.0000  A  3.39967e-01  4.57730e-01
sC7          C7      12.01   0.0000  A  3.39967e-01  4.07660e-01
C8           6       12.01   0.0000  A  3.39967e-01  4.57730e-01
sC8          C8      12.01   0.0000  A  3.39967e-01  4.07660e-01
C9           6       12.01   0.0000  A  3.39967e-01  4.57730e-01
sC9          C9      12.01   0.0000  A  3.39967e-01  4.07660e-01
CV           6       12.01   0.0000  A  3.39967e-01  3.59824e-01
sCV          CV      12.01   0.0000  A  3.39967e-01  3.20463e-01
CW           6       12.01   0.0000  A  3.39967e-01  3.59824e-01
sCW          CW      12.01   0.0000  A  3.39967e-01  3.20463e-01
C*           6       12.01   0.0000  A  3.39967e-01  3.59824e-01
sC*          C*      12.01   0.0000  A  3.39967e-01  3.20463e-01
C0           20      40.08   0.0000  A  3.05240e-01  1.92376e+00
sC0          C0      40.08   0.0000  A  3.05240e-01  1.71332e+00
F            9       19.00   0.0000  A  3.11815e-01  2.55224e-01
sF           F       19.00   0.0000  A  3.11815e-01  2.27305e-01
H            1       1.008   0.0000  A  1.06908e-01  6.56888e-02
sH           H       1.008   0.0000  A  1.06908e-01  5.85032e-02
HB           1       1.008   0.0000  A  1.06908e-01  6.56888e-02
sHB          HB      1.008   0.0000  A  1.06908e-01  5.85032e-02
HC           1       1.008   0.0000  A  2.64953e-01  6.56888e-02
sHC          HC      1.008   0.0000  A  2.64953e-01  5.85032e-02
H1           1       1.008   0.0000  A  2.47135e-01  6.56888e-02
sH1          H1      1.008   0.0000  A  2.47135e-01  5.85032e-02
H2           1       1.008   0.0000  A  2.29317e-01  6.56888e-02
sH2          H2      1.008   0.0000  A  2.29317e-01  5.85032e-02
H3           1       1.008   0.0000  A  2.11499e-01  6.56888e-02
sH3          H3      1.008   0.0000  A  2.11499e-01  5.85032e-02
HA           1       1.008   0.0000  A  2.59964e-01  6.27600e-02
sHA          HA      1.008   0.0000  A  2.59964e-01  5.58948e-02
H4           1       1.008   0.0000  A  2.51055e-01  6.27600e-02
sH4          H4      1.008   0.0000  A  2.51055e-01  5.58948e-02
H5           1       1.008   0.0000  A  2.42146e-01  6.27600e-02
sH5          H5      1.008   0.0000  A  2.42146e-01  5.58948e-02
HO           1       1.008   0.0000  A  0.00000e+00  0.00000e+00
sHO          HO      1.008   0.0000  A  0.00000e+00  0.00000e+00
HS           1       1.008   0.0000  A  1.06908e-01  6.56888e-02
sHS          HS      1.008   0.0000  A  1.06908e-01  5.85032e-02
HW           1       1.008   0.0000  A  0.00000e+00  0.00000e+00
sHW          HW      1.008   0.0000  A  0.00000e+00  0.00000e+00
HP           1       1.008   0.0000  A  1.95998e-01  6.56888e-02
sHP          HP      1.008   0.0000  A  1.95998e-01  5.85032e-02
I            53      126.9   0.0000  A  4.18722e-01  1.67360e+00
sI           I       126.9   0.0000  A  4.18722e-01  1.49053e+00
Cl           17      35.45   0.0000  A  4.40104e-01  4.18400e-01
sCl          Cl      35.45   0.0000  A  4.40104e-01  3.72632e-01
Na           11      22.99   0.0000  A  3.32840e-01  1.15897e-02
sNa          Na      22.99   0.0000  A  3.32840e-01  1.03219e-02
IB           0       131.0   0.0000  A  8.90899e-01  4.18400e-01
sIB          IB      131.0   0.0000  A  8.90899e-01  3.72632e-01
MG           12     24.305   0.0000  A  1.41225e-01  3.74342e+00
sMG          MG     24.305   0.0000  A  1.41225e-01  3.33393e+00
N            7       14.01   0.0000  A  3.25000e-01  7.11280e-01
sN           N       14.01   0.0000  A  3.25000e-01  6.33474e-01
NA           7       14.01   0.0000  A  3.25000e-01  7.11280e-01
sNA          NA      14.01   0.0000  A  3.25000e-01  6.33474e-01
NB           7       14.01   0.0000  A  3.25000e-01  7.11280e-01
sNB          NB      14.01   0.0000  A  3.25000e-01  6.33474e-01
NC           7       14.01   0.0000  A  3.25000e-01  7.11280e-01
sNC          NC      14.01   0.0000  A  3.25000e-01  6.33474e-01
N2           7       14.01   0.0000  A  3.25000e-01  7.11280e-01
sN2          N2      14.01   0.0000  A  3.25000e-01  6.33474e-01
N3           7       14.01   0.0000  A  3.25000e-01  7.11280e-01
sN3          N3      14.01   0.0000  A  3.25000e-01  6.33474e-01
N*           7       14.01   0.0000  A  3.25000e-01  7.11280e-01
sN*          N*      14.01   0.0000  A  3.25000e-01  6.33474e-01
O            8       16.00   0.0000  A  2.95992e-01  8.78640e-01
sO           O       16.00   0.0000  A  2.95992e-01  7.82527e-01
OB           8       16.00   0.0000  A  2.95992e-01  8.78640e-01
sOB          OB      16.00   0.0000  A  2.95992e-01  7.82527e-01
OW           8       16.00   0.0000  A  3.15061e-01  6.36386e-01
sOW          OW      16.00   0.0000  A  3.15061e-01  5.66773e-01
OH           8       16.00   0.0000  A  3.06647e-01  8.80314e-01
sOH          OH      16.00   0.0000  A  3.06647e-01  7.84018e-01
O3           8       16.00   0.0000  A  3.06647e-01  8.80314e-01
sO3          O3      16.00   0.0000  A  3.06647e-01  7.84018e-01
OS           8       16.00   0.0000  A  3.00001e-01  7.11280e-01
sOS          OS      16.00   0.0000  A  3.00001e-01  6.33474e-01
O2           8       16.00   0.0000  A  2.95992e-01  8.78640e-01
sO2          O2      16.00   0.0000  A  2.95992e-01  7.82527e-01
P            15      30.97   0.0000  A  3.74177e-01  8.36800e-01
sP           P       30.97   0.0000  A  3.74177e-01  7.45264e-01
S            16      32.06   0.0000  A  3.56359e-01  1.04600e+00
sS           S       32.06   0.0000  A  3.56359e-01  9.31579e-01
SH           16      32.06   0.0000  A  3.56359e-01  1.04600e+00
sSH          SH      32.06   0.0000  A  3.56359e-01  9.31579e-01
CU           29      63.55   0.0000  A  3.39967e-01  3.59824e-01
sCU          CU      63.55   0.0000  A  3.39967e-01  3.20463e-01
FE           26      55.00   0.0000  A  0.00000e+00  0.00000e+00
sFE          FE      55.00   0.0000  A  0.00000e+00  0.00000e+00
K            19      39.10   0.0000  A  4.73602e-01  1.37235e-03
sK           K       39.10   0.0000  A  4.73602e-01  1.22223e-03
Rb           37      85.47   0.0000  A  5.26699e-01  7.11280e-04
sRb          Rb      85.47   0.0000  A  5.26699e-01  6.33474e-04
Cs           55     132.91   0.0000  A  6.04920e-01  3.37230e-04
sCs          Cs     132.91   0.0000  A  6.04920e-01  3.00341e-04
OW_spc       8      15.9994   0.0000  A  3.16557e-01  6.50629e-01
sOW_spc      OW_spc 15.9994   0.0000  A  3.16557e-01  5.79458e-01
HW_spc       1      1.0080   0.0000  A  0.00000e+00  0.00000e+00
sHW_spc      HW_spc 1.0080   0.0000  A  0.00000e+00  0.00000e+00
Li           3        6.94   0.0000  A  2.02590e-01  7.65672e-02
sLi          Li       6.94   0.0000  A  2.02590e-01  6.81916e-02
Zn           30       65.4   0.0000  A  1.95998e-01  5.23000e-02
sZn          Zn       65.4   0.0000  A  1.95998e-01  4.65790e-02
HW_tip4pew   1       1.008   0.0000  A  0.00000e+00  0.00000e+00
sHW_tip4pew  HW_tip4pew  1.008   0.0000  A  0.00000e+00  0.00000e+00
OW_tip4pew   8       16.00   0.0000  A  3.16435e-01  6.80946e-01
sOW_tip4pew  OW_tip4pew  16.00   0.0000  A  3.16435e-01  6.06458e-01
HW_tip4p     1       1.008   0.0000  A  0.00000e+00  0.00000e+00
sHW_tip4p    HW_tip4p  1.008   0.0000  A  0.00000e+00  0.00000e+00
OW_tip4p     8       16.00   0.0000  A  3.15365e-01  6.48520e-01
sOW_tip4p    OW_tip4p  16.00   0.0000  A  3.15365e-01  5.77579e-01
HW_tip5p     1       1.008   0.0000  A  0.00000e+00  0.00000e+00
sHW_tip5p    HW_tip5p  1.008   0.0000  A  0.00000e+00  0.00000e+00
OW_tip5p     8       16.00   0.0000  A  3.12000e-01  6.69440e-01
sOW_tip5p    OW_tip5p  16.00   0.0000  A  3.12000e-01  5.96211e-01
HW_tip4pd    1       1.008   0.0000  A  0.00000e+00  0.00000e+00
sHW_tip4pd   HW_tip4pd  1.008   0.0000  A  0.00000e+00  0.00000e+00
OW_tip4pd    8       16.00   0.0000  A  3.16500e-01  9.98989e-01
sOW_tip4pd   OW_tip4pd  16.00   0.0000  A  3.16500e-01  8.89711e-01
MW           0      0.0000   0.0000  A  0.00000e+00  0.00000e+00
sMW          MW     0.0000   0.0000  A  0.00000e+00  0.00000e+00
MCH3         0      0.0000   0.0000  A  0.00000e+00  0.00000e+00
sMCH3        MCH3   0.0000   0.0000  A  0.00000e+00  0.00000e+00
MNH3         0      0.0000   0.0000  A  0.00000e+00  0.00000e+00
sMNH3        MNH3   0.0000   0.0000  A  0.00000e+00  0.00000e+00
c3           c3     0.00000  0.00000  A  3.39967e-01  4.57730e-01
sc3          c3     0.00000  0.00000  A  3.39967e-01  4.07660e-01
hc           hc     0.00000  0.00000  A  2.64953e-01  6.56888e-02
shc          hc     0.00000  0.00000  A  2.64953e-01  5.85032e-02
c            c      0.00000  0.00000  A  3.39967e-01  3.59824e-01
sc           c      0.00000  0.00000  A  3.39967e-01  3.20463e-01
o            o      0.00000  0.00000  A  2.95992e-01  8.78640e-01
so           o      0.00000  0.00000  A  2.95992e-01  7.82527e-01
n            n      0.00000  0.00000  A  3.25000e-01  7.11280e-01
sn           n      0.00000  0.00000  A  3.25000e-01  6.33474e-01
h1           h1     0.00000  0.00000  A  2.47135e-01  6.56888e-02
sh1          h1     0.00000  0.00000  A  2.47135e-01  5.85032e-02
ca           ca     0.00000  0.00000  A  3.39967e-01  3.59824e-01
sca          ca     0.00000  0.00000  A  3.39967e-01  3.20463e-01
ha           ha     0.00000  0.00000  A  2.59964e-01  6.27600e-02
sha          ha     0.00000  0.00000  A  2.59964e-01  5.58948e-02
sy           sy     0.00000  0.00000  A  3.56359e-01  1.04600e+00
ssy          sy     0.00000  0.00000  A  3.56359e-01  9.31579e-01
n3           n3     0.00000  0.00000  A  3.25000e-01  7.11280e-01
sn3          n3     0.00000  0.00000  A  3.25000e-01  6.33474e-01
hx           hx     0.00000  0.00000  A  1.95998e-01  6.56888e-02
shx          hx     0.00000  0.00000  A  1.95998e-01  5.85032e-02
n4           n4     0.00000  0.00000  A  3.25000e-01  7.11280e-01
sn4          n4     0.00000  0.00000  A  3.25000e-01  6.33474e-01
hn           hn     0.00000  0.00000  A  1.06908e-01  6.56888e-02
shn          hn     0.00000  0.00000  A  1.06908e-01  5.85032e-02

[ nonbond_params ]
  OB   HB     1      0.150   1.2552
  sOB  sHB     1      0.150   1.1179
   OB  sHB     1      0.150   1.1881
  sOB   HB     1      0.150   1.1881
  sBr   Br   1       0.0000   0.0000
  sBr    C   1       0.1700   0.0000
  sBr   C6   1       0.1700   0.0000
  sBr   C5   1       0.1700   0.0000
  sBr   CA   1       0.1700   0.0000
  sBr   CB   1       0.1700   0.0000
  sBr   CC   1       0.1700   0.0000
  sBr   CK   1       0.1700   0.0000
  sBr   CM   1       0.1700   0.0000
  sBr   CN   1       0.1700   0.0000
  sBr   CQ   1       0.1700   0.0000
  sBr   CR   1       0.1700   0.0000
  sBr   CT   1       0.1700   0.0000
  sBr   C1   1       0.1700   0.0000
  sBr   C3   1       0.1700   0.0000
  sBr   C4   1       0.1700   0.0000
  sBr   C7   1       0.1700   0.0000
  sBr   C8   1       0.1700   0.0000
  sBr   C9   1       0.1700   0.0000
  sBr   CV   1       0.1700   0.0000
  sBr   CW   1       0.1700   0.0000
  sBr   C*   1       0.1700   0.0000
  sBr   C0   1       0.1526   0.0000
  sBr    F   1       0.1559   0.0000
  sBr    H   1       0.0535   0.0000
  sBr   HB   1       0.0535   0.0000
  sBr   HC   1       0.1325   0.0000
  sBr   H1   1       0.1236   0.0000
  sBr   H2   1       0.1147   0.0000
  sBr   H3   1       0.1057   0.0000
  sBr   HA   1       0.1300   0.0000
  sBr   H4   1       0.1255   0.0000
  sBr   H5   1       0.1211   0.0000
  sBr   HO   1       0.0000   0.0000
  sBr   HS   1       0.0535   0.0000
  sBr   HW   1       0.0000   0.0000
  sBr   HP   1       0.0980   0.0000
  sBr    I   1       0.2094   0.0000
  sBr   Cl   1       0.2201   0.0000
  sBr   Na   1       0.1664   0.0000
  sBr   IB   1       0.4454   0.0000
  sBr   MG   1       0.0706   0.0000
  sBr    N   1       0.1625   0.0000
  sBr   NA   1       0.1625   0.0000
  sBr   NB   1       0.1625   0.0000
  sBr   NC   1       0.1625   0.0000
  sBr   N2   1       0.1625   0.0000
  sBr   N3   1       0.1625   0.0000
  sBr   N*   1       0.1625   0.0000
  sBr    O   1       0.1480   0.0000
  sBr   OB   1       0.1480   0.0000
  sBr   OW   1       0.1575   0.0000
  sBr   OH   1       0.1533   0.0000
  sBr   O3   1       0.1533   0.0000
  sBr   OS   1       0.1500   0.0000
  sBr   O2   1       0.1480   0.0000
  sBr    P   1       0.1871   0.0000
  sBr    S   1       0.1782   0.0000
  sBr   SH   1       0.1782   0.0000
  sBr   CU   1       0.1700   0.0000
  sBr   FE   1       0.0000   0.0000
  sBr    K   1       0.2368   0.0000
  sBr   Rb   1       0.2633   0.0000
  sBr   Li   1       0.1013   0.0000
  sBr   Zn   1       0.0980   0.0000
  sBr HW_tip4pew   1       0.0000   0.0000
  sBr OW_tip4pew   1       0.1582   0.0000
  sBr HW_tip4p   1       0.0000   0.0000
  sBr OW_tip4p   1       0.1577   0.0000
  sBr HW_tip5p   1       0.0000   0.0000
  sBr OW_tip5p   1       0.1560   0.0000
  sBr HW_tip4pd   1       0.0000   0.0000
  sBr OW_tip4pd   1       0.1583   0.0000
  sBr   MW   1       0.0000   0.0000
  sBr MCH3   1       0.0000   0.0000
  sBr MNH3   1       0.0000   0.0000
  sBr   c3   1       0.1700   0.0000
  sBr   hc   1       0.1325   0.0000
  sBr    c   1       0.1700   0.0000
  sBr    o   1       0.1480   0.0000
  sBr    n   1       0.1625   0.0000
  sBr   h1   1       0.1236   0.0000
  sBr   ca   1       0.1700   0.0000
  sBr   ha   1       0.1300   0.0000
  sBr   n3   1       0.1625   0.0000
  sBr   hx   1       0.0980   0.0000
  sBr   n4   1       0.1625   0.0000
  sBr   hn   1       0.0535   0.0000
   sC   Br   1       0.1700   0.0000
   sC    C   1       0.3400   0.3214
   sC   C6   1       0.3400   0.3214
   sC   C5   1       0.3400   0.3214
   sC   CA   1       0.3400   0.3214
   sC   CB   1       0.3400   0.3214
   sC   CC   1       0.3400   0.3214
   sC   CK   1       0.3400   0.3214
   sC   CM   1       0.3400   0.3214
   sC   CN   1       0.3400   0.3214
   sC   CQ   1       0.3400   0.3214
   sC   CR   1       0.3400   0.3214
   sC   CT   1       0.3400   0.3625
   sC   C1   1       0.3400   0.3625
   sC   C3   1       0.3400   0.3625
   sC   C4   1       0.3400   0.3625
   sC   C7   1       0.3400   0.3625
   sC   C8   1       0.3400   0.3625
   sC   C9   1       0.3400   0.3625
   sC   CV   1       0.3400   0.3214
   sC   CW   1       0.3400   0.3214
   sC   C*   1       0.3400   0.3214
   sC   C0   1       0.3226   0.7432
   sC    F   1       0.3259   0.2707
   sC    H   1       0.2234   0.1373
   sC   HB   1       0.2234   0.1373
   sC   HC   1       0.3025   0.1373
   sC   H1   1       0.2936   0.1373
   sC   H2   1       0.2846   0.1373
   sC   H3   1       0.2757   0.1373
   sC   HA   1       0.3000   0.1342
   sC   H4   1       0.2955   0.1342
   sC   H5   1       0.2911   0.1342
   sC   HO   1       0.1700   0.0000
   sC   HS   1       0.2234   0.1373
   sC   HW   1       0.1700   0.0000
   sC   HP   1       0.2680   0.1373
   sC    I   1       0.3793   0.6932
   sC   Cl   1       0.3900   0.3466
   sC   Na   1       0.3364   0.0577
   sC   IB   1       0.6154   0.3466
   sC   MG   1       0.2406   1.0367
   sC    N   1       0.3325   0.4519
   sC   NA   1       0.3325   0.4519
   sC   NB   1       0.3325   0.4519
   sC   NC   1       0.3325   0.4519
   sC   N2   1       0.3325   0.4519
   sC   N3   1       0.3325   0.4519
   sC   N*   1       0.3325   0.4519
   sC    O   1       0.3180   0.5023
   sC   OB   1       0.3180   0.5023
   sC   OW   1       0.3275   0.4275
   sC   OH   1       0.3233   0.5028
   sC   O3   1       0.3233   0.5028
   sC   OS   1       0.3200   0.4519
   sC   O2   1       0.3180   0.5023
   sC    P   1       0.3571   0.4902
   sC    S   1       0.3482   0.5480
   sC   SH   1       0.3482   0.5480
   sC   CU   1       0.3400   0.3214
   sC   FE   1       0.1700   0.0000
   sC    K   1       0.4068   0.0199
   sC   Rb   1       0.4333   0.0143
   sC   Li   1       0.2713   0.1483
   sC   Zn   1       0.2680   0.1225
   sC HW_tip4pew   1       0.1700   0.0000
   sC OW_tip4pew   1       0.3282   0.4422
   sC HW_tip4p   1       0.1700   0.0000
   sC OW_tip4p   1       0.3277   0.4315
   sC HW_tip5p   1       0.1700   0.0000
   sC OW_tip5p   1       0.3260   0.4384
   sC HW_tip4pd   1       0.1700   0.0000
   sC OW_tip4pd   1       0.3282   0.5356
   sC   MW   1       0.1700   0.0000
   sC MCH3   1       0.1700   0.0000
   sC MNH3   1       0.1700   0.0000
   sC   c3   1       0.3400   0.3625
   sC   hc   1       0.3025   0.1373
   sC    c   1       0.3400   0.3214
   sC    o   1       0.3180   0.5023
   sC    n   1       0.3325   0.4519
   sC   h1   1       0.2936   0.1373
   sC   ca   1       0.3400   0.3214
   sC   ha   1       0.3000   0.1342
   sC   n3   1       0.3325   0.4519
   sC   hx   1       0.2680   0.1373
   sC   n4   1       0.3325   0.4519
   sC   hn   1       0.2234   0.1373
  sC6   Br   1       0.1700   0.0000
  sC6    C   1       0.3400   0.3214
  sC6   C6   1       0.3400   0.3214
  sC6   C5   1       0.3400   0.3214
  sC6   CA   1       0.3400   0.3214
  sC6   CB   1       0.3400   0.3214
  sC6   CC   1       0.3400   0.3214
  sC6   CK   1       0.3400   0.3214
  sC6   CM   1       0.3400   0.3214
  sC6   CN   1       0.3400   0.3214
  sC6   CQ   1       0.3400   0.3214
  sC6   CR   1       0.3400   0.3214
  sC6   CT   1       0.3400   0.3625
  sC6   C1   1       0.3400   0.3625
  sC6   C3   1       0.3400   0.3625
  sC6   C4   1       0.3400   0.3625
  sC6   C7   1       0.3400   0.3625
  sC6   C8   1       0.3400   0.3625
  sC6   C9   1       0.3400   0.3625
  sC6   CV   1       0.3400   0.3214
  sC6   CW   1       0.3400   0.3214
  sC6   C*   1       0.3400   0.3214
  sC6   C0   1       0.3226   0.7432
  sC6    F   1       0.3259   0.2707
  sC6    H   1       0.2234   0.1373
  sC6   HB   1       0.2234   0.1373
  sC6   HC   1       0.3025   0.1373
  sC6   H1   1       0.2936   0.1373
  sC6   H2   1       0.2846   0.1373
  sC6   H3   1       0.2757   0.1373
  sC6   HA   1       0.3000   0.1342
  sC6   H4   1       0.2955   0.1342
  sC6   H5   1       0.2911   0.1342
  sC6   HO   1       0.1700   0.0000
  sC6   HS   1       0.2234   0.1373
  sC6   HW   1       0.1700   0.0000
  sC6   HP   1       0.2680   0.1373
  sC6    I   1       0.3793   0.6932
  sC6   Cl   1       0.3900   0.3466
  sC6   Na   1       0.3364   0.0577
  sC6   IB   1       0.6154   0.3466
  sC6   MG   1       0.2406   1.0367
  sC6    N   1       0.3325   0.4519
  sC6   NA   1       0.3325   0.4519
  sC6   NB   1       0.3325   0.4519
  sC6   NC   1       0.3325   0.4519
  sC6   N2   1       0.3325   0.4519
  sC6   N3   1       0.3325   0.4519
  sC6   N*   1       0.3325   0.4519
  sC6    O   1       0.3180   0.5023
  sC6   OB   1       0.3180   0.5023
  sC6   OW   1       0.3275   0.4275
  sC6   OH   1       0.3233   0.5028
  sC6   O3   1       0.3233   0.5028
  sC6   OS   1       0.3200   0.4519
  sC6   O2   1       0.3180   0.5023
  sC6    P   1       0.3571   0.4902
  sC6    S   1       0.3482   0.5480
  sC6   SH   1       0.3482   0.5480
  sC6   CU   1       0.3400   0.3214
  sC6   FE   1       0.1700   0.0000
  sC6    K   1       0.4068   0.0199
  sC6   Rb   1       0.4333   0.0143
  sC6   Li   1       0.2713   0.1483
  sC6   Zn   1       0.2680   0.1225
  sC6 HW_tip4pew   1       0.1700   0.0000
  sC6 OW_tip4pew   1       0.3282   0.4422
  sC6 HW_tip4p   1       0.1700   0.0000
  sC6 OW_tip4p   1       0.3277   0.4315
  sC6 HW_tip5p   1       0.1700   0.0000
  sC6 OW_tip5p   1       0.3260   0.4384
  sC6 HW_tip4pd   1       0.1700   0.0000
  sC6 OW_tip4pd   1       0.3282   0.5356
  sC6   MW   1       0.1700   0.0000
  sC6 MCH3   1       0.1700   0.0000
  sC6 MNH3   1       0.1700   0.0000
  sC6   c3   1       0.3400   0.3625
  sC6   hc   1       0.3025   0.1373
  sC6    c   1       0.3400   0.3214
  sC6    o   1       0.3180   0.5023
  sC6    n   1       0.3325   0.4519
  sC6   h1   1       0.2936   0.1373
  sC6   ca   1       0.3400   0.3214
  sC6   ha   1       0.3000   0.1342
  sC6   n3   1       0.3325   0.4519
  sC6   hx   1       0.2680   0.1373
  sC6   n4   1       0.3325   0.4519
  sC6   hn   1       0.2234   0.1373
  sC5   Br   1       0.1700   0.0000
  sC5    C   1       0.3400   0.3214
  sC5   C6   1       0.3400   0.3214
  sC5   C5   1       0.3400   0.3214
  sC5   CA   1       0.3400   0.3214
  sC5   CB   1       0.3400   0.3214
  sC5   CC   1       0.3400   0.3214
  sC5   CK   1       0.3400   0.3214
  sC5   CM   1       0.3400   0.3214
  sC5   CN   1       0.3400   0.3214
  sC5   CQ   1       0.3400   0.3214
  sC5   CR   1       0.3400   0.3214
  sC5   CT   1       0.3400   0.3625
  sC5   C1   1       0.3400   0.3625
  sC5   C3   1       0.3400   0.3625
  sC5   C4   1       0.3400   0.3625
  sC5   C7   1       0.3400   0.3625
  sC5   C8   1       0.3400   0.3625
  sC5   C9   1       0.3400   0.3625
  sC5   CV   1       0.3400   0.3214
  sC5   CW   1       0.3400   0.3214
  sC5   C*   1       0.3400   0.3214
  sC5   C0   1       0.3226   0.7432
  sC5    F   1       0.3259   0.2707
  sC5    H   1       0.2234   0.1373
  sC5   HB   1       0.2234   0.1373
  sC5   HC   1       0.3025   0.1373
  sC5   H1   1       0.2936   0.1373
  sC5   H2   1       0.2846   0.1373
  sC5   H3   1       0.2757   0.1373
  sC5   HA   1       0.3000   0.1342
  sC5   H4   1       0.2955   0.1342
  sC5   H5   1       0.2911   0.1342
  sC5   HO   1       0.1700   0.0000
  sC5   HS   1       0.2234   0.1373
  sC5   HW   1       0.1700   0.0000
  sC5   HP   1       0.2680   0.1373
  sC5    I   1       0.3793   0.6932
  sC5   Cl   1       0.3900   0.3466
  sC5   Na   1       0.3364   0.0577
  sC5   IB   1       0.6154   0.3466
  sC5   MG   1       0.2406   1.0367
  sC5    N   1       0.3325   0.4519
  sC5   NA   1       0.3325   0.4519
  sC5   NB   1       0.3325   0.4519
  sC5   NC   1       0.3325   0.4519
  sC5   N2   1       0.3325   0.4519
  sC5   N3   1       0.3325   0.4519
  sC5   N*   1       0.3325   0.4519
  sC5    O   1       0.3180   0.5023
  sC5   OB   1       0.3180   0.5023
  sC5   OW   1       0.3275   0.4275
  sC5   OH   1       0.3233   0.5028
  sC5   O3   1       0.3233   0.5028
  sC5   OS   1       0.3200   0.4519
  sC5   O2   1       0.3180   0.5023
  sC5    P   1       0.3571   0.4902
  sC5    S   1       0.3482   0.5480
  sC5   SH   1       0.3482   0.5480
  sC5   CU   1       0.3400   0.3214
  sC5   FE   1       0.1700   0.0000
  sC5    K   1       0.4068   0.0199
  sC5   Rb   1       0.4333   0.0143
  sC5   Li   1       0.2713   0.1483
  sC5   Zn   1       0.2680   0.1225
  sC5 HW_tip4pew   1       0.1700   0.0000
  sC5 OW_tip4pew   1       0.3282   0.4422
  sC5 HW_tip4p   1       0.1700   0.0000
  sC5 OW_tip4p   1       0.3277   0.4315
  sC5 HW_tip5p   1       0.1700   0.0000
  sC5 OW_tip5p   1       0.3260   0.4384
  sC5 HW_tip4pd   1       0.1700   0.0000
  sC5 OW_tip4pd   1       0.3282   0.5356
  sC5   MW   1       0.1700   0.0000
  sC5 MCH3   1       0.1700   0.0000
  sC5 MNH3   1       0.1700   0.0000
  sC5   c3   1       0.3400   0.3625
  sC5   hc   1       0.3025   0.1373
  sC5    c   1       0.3400   0.3214
  sC5    o   1       0.3180   0.5023
  sC5    n   1       0.3325   0.4519
  sC5   h1   1       0.2936   0.1373
  sC5   ca   1       0.3400   0.3214
  sC5   ha   1       0.3000   0.1342
  sC5   n3   1       0.3325   0.4519
  sC5   hx   1       0.2680   0.1373
  sC5   n4   1       0.3325   0.4519
  sC5   hn   1       0.2234   0.1373
  sCA   Br   1       0.1700   0.0000
  sCA    C   1       0.3400   0.3214
  sCA   C6   1       0.3400   0.3214
  sCA   C5   1       0.3400   0.3214
  sCA   CA   1       0.3400   0.3214
  sCA   CB   1       0.3400   0.3214
  sCA   CC   1       0.3400   0.3214
  sCA   CK   1       0.3400   0.3214
  sCA   CM   1       0.3400   0.3214
  sCA   CN   1       0.3400   0.3214
  sCA   CQ   1       0.3400   0.3214
  sCA   CR   1       0.3400   0.3214
  sCA   CT   1       0.3400   0.3625
  sCA   C1   1       0.3400   0.3625
  sCA   C3   1       0.3400   0.3625
  sCA   C4   1       0.3400   0.3625
  sCA   C7   1       0.3400   0.3625
  sCA   C8   1       0.3400   0.3625
  sCA   C9   1       0.3400   0.3625
  sCA   CV   1       0.3400   0.3214
  sCA   CW   1       0.3400   0.3214
  sCA   C*   1       0.3400   0.3214
  sCA   C0   1       0.3226   0.7432
  sCA    F   1       0.3259   0.2707
  sCA    H   1       0.2234   0.1373
  sCA   HB   1       0.2234   0.1373
  sCA   HC   1       0.3025   0.1373
  sCA   H1   1       0.2936   0.1373
  sCA   H2   1       0.2846   0.1373
  sCA   H3   1       0.2757   0.1373
  sCA   HA   1       0.3000   0.1342
  sCA   H4   1       0.2955   0.1342
  sCA   H5   1       0.2911   0.1342
  sCA   HO   1       0.1700   0.0000
  sCA   HS   1       0.2234   0.1373
  sCA   HW   1       0.1700   0.0000
  sCA   HP   1       0.2680   0.1373
  sCA    I   1       0.3793   0.6932
  sCA   Cl   1       0.3900   0.3466
  sCA   Na   1       0.3364   0.0577
  sCA   IB   1       0.6154   0.3466
  sCA   MG   1       0.2406   1.0367
  sCA    N   1       0.3325   0.4519
  sCA   NA   1       0.3325   0.4519
  sCA   NB   1       0.3325   0.4519
  sCA   NC   1       0.3325   0.4519
  sCA   N2   1       0.3325   0.4519
  sCA   N3   1       0.3325   0.4519
  sCA   N*   1       0.3325   0.4519
  sCA    O   1       0.3180   0.5023
  sCA   OB   1       0.3180   0.5023
  sCA   OW   1       0.3275   0.4275
  sCA   OH   1       0.3233   0.5028
  sCA   O3   1       0.3233   0.5028
  sCA   OS   1       0.3200   0.4519
  sCA   O2   1       0.3180   0.5023
  sCA    P   1       0.3571   0.4902
  sCA    S   1       0.3482   0.5480
  sCA   SH   1       0.3482   0.5480
  sCA   CU   1       0.3400   0.3214
  sCA   FE   1       0.1700   0.0000
  sCA    K   1       0.4068   0.0199
  sCA   Rb   1       0.4333   0.0143
  sCA   Li   1       0.2713   0.1483
  sCA   Zn   1       0.2680   0.1225
  sCA HW_tip4pew   1       0.1700   0.0000
  sCA OW_tip4pew   1       0.3282   0.4422
  sCA HW_tip4p   1       0.1700   0.0000
  sCA OW_tip4p   1       0.3277   0.4315
  sCA HW_tip5p   1       0.1700   0.0000
  sCA OW_tip5p   1       0.3260   0.4384
  sCA HW_tip4pd   1       0.1700   0.0000
  sCA OW_tip4pd   1       0.3282   0.5356
  sCA   MW   1       0.1700   0.0000
  sCA MCH3   1       0.1700   0.0000
  sCA MNH3   1       0.1700   0.0000
  sCA   c3   1       0.3400   0.3625
  sCA   hc   1       0.3025   0.1373
  sCA    c   1       0.3400   0.3214
  sCA    o   1       0.3180   0.5023
  sCA    n   1       0.3325   0.4519
  sCA   h1   1       0.2936   0.1373
  sCA   ca   1       0.3400   0.3214
  sCA   ha   1       0.3000   0.1342
  sCA   n3   1       0.3325   0.4519
  sCA   hx   1       0.2680   0.1373
  sCA   n4   1       0.3325   0.4519
  sCA   hn   1       0.2234   0.1373
  sCB   Br   1       0.1700   0.0000
  sCB    C   1       0.3400   0.3214
  sCB   C6   1       0.3400   0.3214
  sCB   C5   1       0.3400   0.3214
  sCB   CA   1       0.3400   0.3214
  sCB   CB   1       0.3400   0.3214
  sCB   CC   1       0.3400   0.3214
  sCB   CK   1       0.3400   0.3214
  sCB   CM   1       0.3400   0.3214
  sCB   CN   1       0.3400   0.3214
  sCB   CQ   1       0.3400   0.3214
  sCB   CR   1       0.3400   0.3214
  sCB   CT   1       0.3400   0.3625
  sCB   C1   1       0.3400   0.3625
  sCB   C3   1       0.3400   0.3625
  sCB   C4   1       0.3400   0.3625
  sCB   C7   1       0.3400   0.3625
  sCB   C8   1       0.3400   0.3625
  sCB   C9   1       0.3400   0.3625
  sCB   CV   1       0.3400   0.3214
  sCB   CW   1       0.3400   0.3214
  sCB   C*   1       0.3400   0.3214
  sCB   C0   1       0.3226   0.7432
  sCB    F   1       0.3259   0.2707
  sCB    H   1       0.2234   0.1373
  sCB   HB   1       0.2234   0.1373
  sCB   HC   1       0.3025   0.1373
  sCB   H1   1       0.2936   0.1373
  sCB   H2   1       0.2846   0.1373
  sCB   H3   1       0.2757   0.1373
  sCB   HA   1       0.3000   0.1342
  sCB   H4   1       0.2955   0.1342
  sCB   H5   1       0.2911   0.1342
  sCB   HO   1       0.1700   0.0000
  sCB   HS   1       0.2234   0.1373
  sCB   HW   1       0.1700   0.0000
  sCB   HP   1       0.2680   0.1373
  sCB    I   1       0.3793   0.6932
  sCB   Cl   1       0.3900   0.3466
  sCB   Na   1       0.3364   0.0577
  sCB   IB   1       0.6154   0.3466
  sCB   MG   1       0.2406   1.0367
  sCB    N   1       0.3325   0.4519
  sCB   NA   1       0.3325   0.4519
  sCB   NB   1       0.3325   0.4519
  sCB   NC   1       0.3325   0.4519
  sCB   N2   1       0.3325   0.4519
  sCB   N3   1       0.3325   0.4519
  sCB   N*   1       0.3325   0.4519
  sCB    O   1       0.3180   0.5023
  sCB   OB   1       0.3180   0.5023
  sCB   OW   1       0.3275   0.4275
  sCB   OH   1       0.3233   0.5028
  sCB   O3   1       0.3233   0.5028
  sCB   OS   1       0.3200   0.4519
  sCB   O2   1       0.3180   0.5023
  sCB    P   1       0.3571   0.4902
  sCB    S   1       0.3482   0.5480
  sCB   SH   1       0.3482   0.5480
  sCB   CU   1       0.3400   0.3214
  sCB   FE   1       0.1700   0.0000
  sCB    K   1       0.4068   0.0199
  sCB   Rb   1       0.4333   0.0143
  sCB   Li   1       0.2713   0.1483
  sCB   Zn   1       0.2680   0.1225
  sCB HW_tip4pew   1       0.1700   0.0000
  sCB OW_tip4pew   1       0.3282   0.4422
  sCB HW_tip4p   1       0.1700   0.0000
  sCB OW_tip4p   1       0.3277   0.4315
  sCB HW_tip5p   1       0.1700   0.0000
  sCB OW_tip5p   1       0.3260   0.4384
  sCB HW_tip4pd   1       0.1700   0.0000
  sCB OW_tip4pd   1       0.3282   0.5356
  sCB   MW   1       0.1700   0.0000
  sCB MCH3   1       0.1700   0.0000
  sCB MNH3   1       0.1700   0.0000
  sCB   c3   1       0.3400   0.3625
  sCB   hc   1       0.3025   0.1373
  sCB    c   1       0.3400   0.3214
  sCB    o   1       0.3180   0.5023
  sCB    n   1       0.3325   0.4519
  sCB   h1   1       0.2936   0.1373
  sCB   ca   1       0.3400   0.3214
  sCB   ha   1       0.3000   0.1342
  sCB   n3   1       0.3325   0.4519
  sCB   hx   1       0.2680   0.1373
  sCB   n4   1       0.3325   0.4519
  sCB   hn   1       0.2234   0.1373
  sCC   Br   1       0.1700   0.0000
  sCC    C   1       0.3400   0.3214
  sCC   C6   1       0.3400   0.3214
  sCC   C5   1       0.3400   0.3214
  sCC   CA   1       0.3400   0.3214
  sCC   CB   1       0.3400   0.3214
  sCC   CC   1       0.3400   0.3214
  sCC   CK   1       0.3400   0.3214
  sCC   CM   1       0.3400   0.3214
  sCC   CN   1       0.3400   0.3214
  sCC   CQ   1       0.3400   0.3214
  sCC   CR   1       0.3400   0.3214
  sCC   CT   1       0.3400   0.3625
  sCC   C1   1       0.3400   0.3625
  sCC   C3   1       0.3400   0.3625
  sCC   C4   1       0.3400   0.3625
  sCC   C7   1       0.3400   0.3625
  sCC   C8   1       0.3400   0.3625
  sCC   C9   1       0.3400   0.3625
  sCC   CV   1       0.3400   0.3214
  sCC   CW   1       0.3400   0.3214
  sCC   C*   1       0.3400   0.3214
  sCC   C0   1       0.3226   0.7432
  sCC    F   1       0.3259   0.2707
  sCC    H   1       0.2234   0.1373
  sCC   HB   1       0.2234   0.1373
  sCC   HC   1       0.3025   0.1373
  sCC   H1   1       0.2936   0.1373
  sCC   H2   1       0.2846   0.1373
  sCC   H3   1       0.2757   0.1373
  sCC   HA   1       0.3000   0.1342
  sCC   H4   1       0.2955   0.1342
  sCC   H5   1       0.2911   0.1342
  sCC   HO   1       0.1700   0.0000
  sCC   HS   1       0.2234   0.1373
  sCC   HW   1       0.1700   0.0000
  sCC   HP   1       0.2680   0.1373
  sCC    I   1       0.3793   0.6932
  sCC   Cl   1       0.3900   0.3466
  sCC   Na   1       0.3364   0.0577
  sCC   IB   1       0.6154   0.3466
  sCC   MG   1       0.2406   1.0367
  sCC    N   1       0.3325   0.4519
  sCC   NA   1       0.3325   0.4519
  sCC   NB   1       0.3325   0.4519
  sCC   NC   1       0.3325   0.4519
  sCC   N2   1       0.3325   0.4519
  sCC   N3   1       0.3325   0.4519
  sCC   N*   1       0.3325   0.4519
  sCC    O   1       0.3180   0.5023
  sCC   OB   1       0.3180   0.5023
  sCC   OW   1       0.3275   0.4275
  sCC   OH   1       0.3233   0.5028
  sCC   O3   1       0.3233   0.5028
  sCC   OS   1       0.3200   0.4519
  sCC   O2   1       0.3180   0.5023
  sCC    P   1       0.3571   0.4902
  sCC    S   1       0.3482   0.5480
  sCC   SH   1       0.3482   0.5480
  sCC   CU   1       0.3400   0.3214
  sCC   FE   1       0.1700   0.0000
  sCC    K   1       0.4068   0.0199
  sCC   Rb   1       0.4333   0.0143
  sCC   Li   1       0.2713   0.1483
  sCC   Zn   1       0.2680   0.1225
  sCC HW_tip4pew   1       0.1700   0.0000
  sCC OW_tip4pew   1       0.3282   0.4422
  sCC HW_tip4p   1       0.1700   0.0000
  sCC OW_tip4p   1       0.3277   0.4315
  sCC HW_tip5p   1       0.1700   0.0000
  sCC OW_tip5p   1       0.3260   0.4384
  sCC HW_tip4pd   1       0.1700   0.0000
  sCC OW_tip4pd   1       0.3282   0.5356
  sCC   MW   1       0.1700   0.0000
  sCC MCH3   1       0.1700   0.0000
  sCC MNH3   1       0.1700   0.0000
  sCC   c3   1       0.3400   0.3625
  sCC   hc   1       0.3025   0.1373
  sCC    c   1       0.3400   0.3214
  sCC    o   1       0.3180   0.5023
  sCC    n   1       0.3325   0.4519
  sCC   h1   1       0.2936   0.1373
  sCC   ca   1       0.3400   0.3214
  sCC   ha   1       0.3000   0.1342
  sCC   n3   1       0.3325   0.4519
  sCC   hx   1       0.2680   0.1373
  sCC   n4   1       0.3325   0.4519
  sCC   hn   1       0.2234   0.1373
  sCK   Br   1       0.1700   0.0000
  sCK    C   1       0.3400   0.3214
  sCK   C6   1       0.3400   0.3214
  sCK   C5   1       0.3400   0.3214
  sCK   CA   1       0.3400   0.3214
  sCK   CB   1       0.3400   0.3214
  sCK   CC   1       0.3400   0.3214
  sCK   CK   1       0.3400   0.3214
  sCK   CM   1       0.3400   0.3214
  sCK   CN   1       0.3400   0.3214
  sCK   CQ   1       0.3400   0.3214
  sCK   CR   1       0.3400   0.3214
  sCK   CT   1       0.3400   0.3625
  sCK   C1   1       0.3400   0.3625
  sCK   C3   1       0.3400   0.3625
  sCK   C4   1       0.3400   0.3625
  sCK   C7   1       0.3400   0.3625
  sCK   C8   1       0.3400   0.3625
  sCK   C9   1       0.3400   0.3625
  sCK   CV   1       0.3400   0.3214
  sCK   CW   1       0.3400   0.3214
  sCK   C*   1       0.3400   0.3214
  sCK   C0   1       0.3226   0.7432
  sCK    F   1       0.3259   0.2707
  sCK    H   1       0.2234   0.1373
  sCK   HB   1       0.2234   0.1373
  sCK   HC   1       0.3025   0.1373
  sCK   H1   1       0.2936   0.1373
  sCK   H2   1       0.2846   0.1373
  sCK   H3   1       0.2757   0.1373
  sCK   HA   1       0.3000   0.1342
  sCK   H4   1       0.2955   0.1342
  sCK   H5   1       0.2911   0.1342
  sCK   HO   1       0.1700   0.0000
  sCK   HS   1       0.2234   0.1373
  sCK   HW   1       0.1700   0.0000
  sCK   HP   1       0.2680   0.1373
  sCK    I   1       0.3793   0.6932
  sCK   Cl   1       0.3900   0.3466
  sCK   Na   1       0.3364   0.0577
  sCK   IB   1       0.6154   0.3466
  sCK   MG   1       0.2406   1.0367
  sCK    N   1       0.3325   0.4519
  sCK   NA   1       0.3325   0.4519
  sCK   NB   1       0.3325   0.4519
  sCK   NC   1       0.3325   0.4519
  sCK   N2   1       0.3325   0.4519
  sCK   N3   1       0.3325   0.4519
  sCK   N*   1       0.3325   0.4519
  sCK    O   1       0.3180   0.5023
  sCK   OB   1       0.3180   0.5023
  sCK   OW   1       0.3275   0.4275
  sCK   OH   1       0.3233   0.5028
  sCK   O3   1       0.3233   0.5028
  sCK   OS   1       0.3200   0.4519
  sCK   O2   1       0.3180   0.5023
  sCK    P   1       0.3571   0.4902
  sCK    S   1       0.3482   0.5480
  sCK   SH   1       0.3482   0.5480
  sCK   CU   1       0.3400   0.3214
  sCK   FE   1       0.1700   0.0000
  sCK    K   1       0.4068   0.0199
  sCK   Rb   1       0.4333   0.0143
  sCK   Li   1       0.2713   0.1483
  sCK   Zn   1       0.2680   0.1225
  sCK HW_tip4pew   1       0.1700   0.0000
  sCK OW_tip4pew   1       0.3282   0.4422
  sCK HW_tip4p   1       0.1700   0.0000
  sCK OW_tip4p   1       0.3277   0.4315
  sCK HW_tip5p   1       0.1700   0.0000
  sCK OW_tip5p   1       0.3260   0.4384
  sCK HW_tip4pd   1       0.1700   0.0000
  sCK OW_tip4pd   1       0.3282   0.5356
  sCK   MW   1       0.1700   0.0000
  sCK MCH3   1       0.1700   0.0000
  sCK MNH3   1       0.1700   0.0000
  sCK   c3   1       0.3400   0.3625
  sCK   hc   1       0.3025   0.1373
  sCK    c   1       0.3400   0.3214
  sCK    o   1       0.3180   0.5023
  sCK    n   1       0.3325   0.4519
  sCK   h1   1       0.2936   0.1373
  sCK   ca   1       0.3400   0.3214
  sCK   ha   1       0.3000   0.1342
  sCK   n3   1       0.3325   0.4519
  sCK   hx   1       0.2680   0.1373
  sCK   n4   1       0.3325   0.4519
  sCK   hn   1       0.2234   0.1373
  sCM   Br   1       0.1700   0.0000
  sCM    C   1       0.3400   0.3214
  sCM   C6   1       0.3400   0.3214
  sCM   C5   1       0.3400   0.3214
  sCM   CA   1       0.3400   0.3214
  sCM   CB   1       0.3400   0.3214
  sCM   CC   1       0.3400   0.3214
  sCM   CK   1       0.3400   0.3214
  sCM   CM   1       0.3400   0.3214
  sCM   CN   1       0.3400   0.3214
  sCM   CQ   1       0.3400   0.3214
  sCM   CR   1       0.3400   0.3214
  sCM   CT   1       0.3400   0.3625
  sCM   C1   1       0.3400   0.3625
  sCM   C3   1       0.3400   0.3625
  sCM   C4   1       0.3400   0.3625
  sCM   C7   1       0.3400   0.3625
  sCM   C8   1       0.3400   0.3625
  sCM   C9   1       0.3400   0.3625
  sCM   CV   1       0.3400   0.3214
  sCM   CW   1       0.3400   0.3214
  sCM   C*   1       0.3400   0.3214
  sCM   C0   1       0.3226   0.7432
  sCM    F   1       0.3259   0.2707
  sCM    H   1       0.2234   0.1373
  sCM   HB   1       0.2234   0.1373
  sCM   HC   1       0.3025   0.1373
  sCM   H1   1       0.2936   0.1373
  sCM   H2   1       0.2846   0.1373
  sCM   H3   1       0.2757   0.1373
  sCM   HA   1       0.3000   0.1342
  sCM   H4   1       0.2955   0.1342
  sCM   H5   1       0.2911   0.1342
  sCM   HO   1       0.1700   0.0000
  sCM   HS   1       0.2234   0.1373
  sCM   HW   1       0.1700   0.0000
  sCM   HP   1       0.2680   0.1373
  sCM    I   1       0.3793   0.6932
  sCM   Cl   1       0.3900   0.3466
  sCM   Na   1       0.3364   0.0577
  sCM   IB   1       0.6154   0.3466
  sCM   MG   1       0.2406   1.0367
  sCM    N   1       0.3325   0.4519
  sCM   NA   1       0.3325   0.4519
  sCM   NB   1       0.3325   0.4519
  sCM   NC   1       0.3325   0.4519
  sCM   N2   1       0.3325   0.4519
  sCM   N3   1       0.3325   0.4519
  sCM   N*   1       0.3325   0.4519
  sCM    O   1       0.3180   0.5023
  sCM   OB   1       0.3180   0.5023
  sCM   OW   1       0.3275   0.4275
  sCM   OH   1       0.3233   0.5028
  sCM   O3   1       0.3233   0.5028
  sCM   OS   1       0.3200   0.4519
  sCM   O2   1       0.3180   0.5023
  sCM    P   1       0.3571   0.4902
  sCM    S   1       0.3482   0.5480
  sCM   SH   1       0.3482   0.5480
  sCM   CU   1       0.3400   0.3214
  sCM   FE   1       0.1700   0.0000
  sCM    K   1       0.4068   0.0199
  sCM   Rb   1       0.4333   0.0143
  sCM   Li   1       0.2713   0.1483
  sCM   Zn   1       0.2680   0.1225
  sCM HW_tip4pew   1       0.1700   0.0000
  sCM OW_tip4pew   1       0.3282   0.4422
  sCM HW_tip4p   1       0.1700   0.0000
  sCM OW_tip4p   1       0.3277   0.4315
  sCM HW_tip5p   1       0.1700   0.0000
  sCM OW_tip5p   1       0.3260   0.4384
  sCM HW_tip4pd   1       0.1700   0.0000
  sCM OW_tip4pd   1       0.3282   0.5356
  sCM   MW   1       0.1700   0.0000
  sCM MCH3   1       0.1700   0.0000
  sCM MNH3   1       0.1700   0.0000
  sCM   c3   1       0.3400   0.3625
  sCM   hc   1       0.3025   0.1373
  sCM    c   1       0.3400   0.3214
  sCM    o   1       0.3180   0.5023
  sCM    n   1       0.3325   0.4519
  sCM   h1   1       0.2936   0.1373
  sCM   ca   1       0.3400   0.3214
  sCM   ha   1       0.3000   0.1342
  sCM   n3   1       0.3325   0.4519
  sCM   hx   1       0.2680   0.1373
  sCM   n4   1       0.3325   0.4519
  sCM   hn   1       0.2234   0.1373
  sCN   Br   1       0.1700   0.0000
  sCN    C   1       0.3400   0.3214
  sCN   C6   1       0.3400   0.3214
  sCN   C5   1       0.3400   0.3214
  sCN   CA   1       0.3400   0.3214
  sCN   CB   1       0.3400   0.3214
  sCN   CC   1       0.3400   0.3214
  sCN   CK   1       0.3400   0.3214
  sCN   CM   1       0.3400   0.3214
  sCN   CN   1       0.3400   0.3214
  sCN   CQ   1       0.3400   0.3214
  sCN   CR   1       0.3400   0.3214
  sCN   CT   1       0.3400   0.3625
  sCN   C1   1       0.3400   0.3625
  sCN   C3   1       0.3400   0.3625
  sCN   C4   1       0.3400   0.3625
  sCN   C7   1       0.3400   0.3625
  sCN   C8   1       0.3400   0.3625
  sCN   C9   1       0.3400   0.3625
  sCN   CV   1       0.3400   0.3214
  sCN   CW   1       0.3400   0.3214
  sCN   C*   1       0.3400   0.3214
  sCN   C0   1       0.3226   0.7432
  sCN    F   1       0.3259   0.2707
  sCN    H   1       0.2234   0.1373
  sCN   HB   1       0.2234   0.1373
  sCN   HC   1       0.3025   0.1373
  sCN   H1   1       0.2936   0.1373
  sCN   H2   1       0.2846   0.1373
  sCN   H3   1       0.2757   0.1373
  sCN   HA   1       0.3000   0.1342
  sCN   H4   1       0.2955   0.1342
  sCN   H5   1       0.2911   0.1342
  sCN   HO   1       0.1700   0.0000
  sCN   HS   1       0.2234   0.1373
  sCN   HW   1       0.1700   0.0000
  sCN   HP   1       0.2680   0.1373
  sCN    I   1       0.3793   0.6932
  sCN   Cl   1       0.3900   0.3466
  sCN   Na   1       0.3364   0.0577
  sCN   IB   1       0.6154   0.3466
  sCN   MG   1       0.2406   1.0367
  sCN    N   1       0.3325   0.4519
  sCN   NA   1       0.3325   0.4519
  sCN   NB   1       0.3325   0.4519
  sCN   NC   1       0.3325   0.4519
  sCN   N2   1       0.3325   0.4519
  sCN   N3   1       0.3325   0.4519
  sCN   N*   1       0.3325   0.4519
  sCN    O   1       0.3180   0.5023
  sCN   OB   1       0.3180   0.5023
  sCN   OW   1       0.3275   0.4275
  sCN   OH   1       0.3233   0.5028
  sCN   O3   1       0.3233   0.5028
  sCN   OS   1       0.3200   0.4519
  sCN   O2   1       0.3180   0.5023
  sCN    P   1       0.3571   0.4902
  sCN    S   1       0.3482   0.5480
  sCN   SH   1       0.3482   0.5480
  sCN   CU   1       0.3400   0.3214
  sCN   FE   1       0.1700   0.0000
  sCN    K   1       0.4068   0.0199
  sCN   Rb   1       0.4333   0.0143
  sCN   Li   1       0.2713   0.1483
  sCN   Zn   1       0.2680   0.1225
  sCN HW_tip4pew   1       0.1700   0.0000
  sCN OW_tip4pew   1       0.3282   0.4422
  sCN HW_tip4p   1       0.1700   0.0000
  sCN OW_tip4p   1       0.3277   0.4315
  sCN HW_tip5p   1       0.1700   0.0000
  sCN OW_tip5p   1       0.3260   0.4384
  sCN HW_tip4pd   1       0.1700   0.0000
  sCN OW_tip4pd   1       0.3282   0.5356
  sCN   MW   1       0.1700   0.0000
  sCN MCH3   1       0.1700   0.0000
  sCN MNH3   1       0.1700   0.0000
  sCN   c3   1       0.3400   0.3625
  sCN   hc   1       0.3025   0.1373
  sCN    c   1       0.3400   0.3214
  sCN    o   1       0.3180   0.5023
  sCN    n   1       0.3325   0.4519
  sCN   h1   1       0.2936   0.1373
  sCN   ca   1       0.3400   0.3214
  sCN   ha   1       0.3000   0.1342
  sCN   n3   1       0.3325   0.4519
  sCN   hx   1       0.2680   0.1373
  sCN   n4   1       0.3325   0.4519
  sCN   hn   1       0.2234   0.1373
  sCQ   Br   1       0.1700   0.0000
  sCQ    C   1       0.3400   0.3214
  sCQ   C6   1       0.3400   0.3214
  sCQ   C5   1       0.3400   0.3214
  sCQ   CA   1       0.3400   0.3214
  sCQ   CB   1       0.3400   0.3214
  sCQ   CC   1       0.3400   0.3214
  sCQ   CK   1       0.3400   0.3214
  sCQ   CM   1       0.3400   0.3214
  sCQ   CN   1       0.3400   0.3214
  sCQ   CQ   1       0.3400   0.3214
  sCQ   CR   1       0.3400   0.3214
  sCQ   CT   1       0.3400   0.3625
  sCQ   C1   1       0.3400   0.3625
  sCQ   C3   1       0.3400   0.3625
  sCQ   C4   1       0.3400   0.3625
  sCQ   C7   1       0.3400   0.3625
  sCQ   C8   1       0.3400   0.3625
  sCQ   C9   1       0.3400   0.3625
  sCQ   CV   1       0.3400   0.3214
  sCQ   CW   1       0.3400   0.3214
  sCQ   C*   1       0.3400   0.3214
  sCQ   C0   1       0.3226   0.7432
  sCQ    F   1       0.3259   0.2707
  sCQ    H   1       0.2234   0.1373
  sCQ   HB   1       0.2234   0.1373
  sCQ   HC   1       0.3025   0.1373
  sCQ   H1   1       0.2936   0.1373
  sCQ   H2   1       0.2846   0.1373
  sCQ   H3   1       0.2757   0.1373
  sCQ   HA   1       0.3000   0.1342
  sCQ   H4   1       0.2955   0.1342
  sCQ   H5   1       0.2911   0.1342
  sCQ   HO   1       0.1700   0.0000
  sCQ   HS   1       0.2234   0.1373
  sCQ   HW   1       0.1700   0.0000
  sCQ   HP   1       0.2680   0.1373
  sCQ    I   1       0.3793   0.6932
  sCQ   Cl   1       0.3900   0.3466
  sCQ   Na   1       0.3364   0.0577
  sCQ   IB   1       0.6154   0.3466
  sCQ   MG   1       0.2406   1.0367
  sCQ    N   1       0.3325   0.4519
  sCQ   NA   1       0.3325   0.4519
  sCQ   NB   1       0.3325   0.4519
  sCQ   NC   1       0.3325   0.4519
  sCQ   N2   1       0.3325   0.4519
  sCQ   N3   1       0.3325   0.4519
  sCQ   N*   1       0.3325   0.4519
  sCQ    O   1       0.3180   0.5023
  sCQ   OB   1       0.3180   0.5023
  sCQ   OW   1       0.3275   0.4275
  sCQ   OH   1       0.3233   0.5028
  sCQ   O3   1       0.3233   0.5028
  sCQ   OS   1       0.3200   0.4519
  sCQ   O2   1       0.3180   0.5023
  sCQ    P   1       0.3571   0.4902
  sCQ    S   1       0.3482   0.5480
  sCQ   SH   1       0.3482   0.5480
  sCQ   CU   1       0.3400   0.3214
  sCQ   FE   1       0.1700   0.0000
  sCQ    K   1       0.4068   0.0199
  sCQ   Rb   1       0.4333   0.0143
  sCQ   Li   1       0.2713   0.1483
  sCQ   Zn   1       0.2680   0.1225
  sCQ HW_tip4pew   1       0.1700   0.0000
  sCQ OW_tip4pew   1       0.3282   0.4422
  sCQ HW_tip4p   1       0.1700   0.0000
  sCQ OW_tip4p   1       0.3277   0.4315
  sCQ HW_tip5p   1       0.1700   0.0000
  sCQ OW_tip5p   1       0.3260   0.4384
  sCQ HW_tip4pd   1       0.1700   0.0000
  sCQ OW_tip4pd   1       0.3282   0.5356
  sCQ   MW   1       0.1700   0.0000
  sCQ MCH3   1       0.1700   0.0000
  sCQ MNH3   1       0.1700   0.0000
  sCQ   c3   1       0.3400   0.3625
  sCQ   hc   1       0.3025   0.1373
  sCQ    c   1       0.3400   0.3214
  sCQ    o   1       0.3180   0.5023
  sCQ    n   1       0.3325   0.4519
  sCQ   h1   1       0.2936   0.1373
  sCQ   ca   1       0.3400   0.3214
  sCQ   ha   1       0.3000   0.1342
  sCQ   n3   1       0.3325   0.4519
  sCQ   hx   1       0.2680   0.1373
  sCQ   n4   1       0.3325   0.4519
  sCQ   hn   1       0.2234   0.1373
  sCR   Br   1       0.1700   0.0000
  sCR    C   1       0.3400   0.3214
  sCR   C6   1       0.3400   0.3214
  sCR   C5   1       0.3400   0.3214
  sCR   CA   1       0.3400   0.3214
  sCR   CB   1       0.3400   0.3214
  sCR   CC   1       0.3400   0.3214
  sCR   CK   1       0.3400   0.3214
  sCR   CM   1       0.3400   0.3214
  sCR   CN   1       0.3400   0.3214
  sCR   CQ   1       0.3400   0.3214
  sCR   CR   1       0.3400   0.3214
  sCR   CT   1       0.3400   0.3625
  sCR   C1   1       0.3400   0.3625
  sCR   C3   1       0.3400   0.3625
  sCR   C4   1       0.3400   0.3625
  sCR   C7   1       0.3400   0.3625
  sCR   C8   1       0.3400   0.3625
  sCR   C9   1       0.3400   0.3625
  sCR   CV   1       0.3400   0.3214
  sCR   CW   1       0.3400   0.3214
  sCR   C*   1       0.3400   0.3214
  sCR   C0   1       0.3226   0.7432
  sCR    F   1       0.3259   0.2707
  sCR    H   1       0.2234   0.1373
  sCR   HB   1       0.2234   0.1373
  sCR   HC   1       0.3025   0.1373
  sCR   H1   1       0.2936   0.1373
  sCR   H2   1       0.2846   0.1373
  sCR   H3   1       0.2757   0.1373
  sCR   HA   1       0.3000   0.1342
  sCR   H4   1       0.2955   0.1342
  sCR   H5   1       0.2911   0.1342
  sCR   HO   1       0.1700   0.0000
  sCR   HS   1       0.2234   0.1373
  sCR   HW   1       0.1700   0.0000
  sCR   HP   1       0.2680   0.1373
  sCR    I   1       0.3793   0.6932
  sCR   Cl   1       0.3900   0.3466
  sCR   Na   1       0.3364   0.0577
  sCR   IB   1       0.6154   0.3466
  sCR   MG   1       0.2406   1.0367
  sCR    N   1       0.3325   0.4519
  sCR   NA   1       0.3325   0.4519
  sCR   NB   1       0.3325   0.4519
  sCR   NC   1       0.3325   0.4519
  sCR   N2   1       0.3325   0.4519
  sCR   N3   1       0.3325   0.4519
  sCR   N*   1       0.3325   0.4519
  sCR    O   1       0.3180   0.5023
  sCR   OB   1       0.3180   0.5023
  sCR   OW   1       0.3275   0.4275
  sCR   OH   1       0.3233   0.5028
  sCR   O3   1       0.3233   0.5028
  sCR   OS   1       0.3200   0.4519
  sCR   O2   1       0.3180   0.5023
  sCR    P   1       0.3571   0.4902
  sCR    S   1       0.3482   0.5480
  sCR   SH   1       0.3482   0.5480
  sCR   CU   1       0.3400   0.3214
  sCR   FE   1       0.1700   0.0000
  sCR    K   1       0.4068   0.0199
  sCR   Rb   1       0.4333   0.0143
  sCR   Li   1       0.2713   0.1483
  sCR   Zn   1       0.2680   0.1225
  sCR HW_tip4pew   1       0.1700   0.0000
  sCR OW_tip4pew   1       0.3282   0.4422
  sCR HW_tip4p   1       0.1700   0.0000
  sCR OW_tip4p   1       0.3277   0.4315
  sCR HW_tip5p   1       0.1700   0.0000
  sCR OW_tip5p   1       0.3260   0.4384
  sCR HW_tip4pd   1       0.1700   0.0000
  sCR OW_tip4pd   1       0.3282   0.5356
  sCR   MW   1       0.1700   0.0000
  sCR MCH3   1       0.1700   0.0000
  sCR MNH3   1       0.1700   0.0000
  sCR   c3   1       0.3400   0.3625
  sCR   hc   1       0.3025   0.1373
  sCR    c   1       0.3400   0.3214
  sCR    o   1       0.3180   0.5023
  sCR    n   1       0.3325   0.4519
  sCR   h1   1       0.2936   0.1373
  sCR   ca   1       0.3400   0.3214
  sCR   ha   1       0.3000   0.1342
  sCR   n3   1       0.3325   0.4519
  sCR   hx   1       0.2680   0.1373
  sCR   n4   1       0.3325   0.4519
  sCR   hn   1       0.2234   0.1373
  sCT   Br   1       0.1700   0.0000
  sCT    C   1       0.3400   0.3625
  sCT   C6   1       0.3400   0.3625
  sCT   C5   1       0.3400   0.3625
  sCT   CA   1       0.3400   0.3625
  sCT   CB   1       0.3400   0.3625
  sCT   CC   1       0.3400   0.3625
  sCT   CK   1       0.3400   0.3625
  sCT   CM   1       0.3400   0.3625
  sCT   CN   1       0.3400   0.3625
  sCT   CQ   1       0.3400   0.3625
  sCT   CR   1       0.3400   0.3625
  sCT   CT   1       0.3400   0.4089
  sCT   C1   1       0.3400   0.4089
  sCT   C3   1       0.3400   0.4089
  sCT   C4   1       0.3400   0.4089
  sCT   C7   1       0.3400   0.4089
  sCT   C8   1       0.3400   0.4089
  sCT   C9   1       0.3400   0.4089
  sCT   CV   1       0.3400   0.3625
  sCT   CW   1       0.3400   0.3625
  sCT   C*   1       0.3400   0.3625
  sCT   C0   1       0.3226   0.8382
  sCT    F   1       0.3259   0.3053
  sCT    H   1       0.2234   0.1549
  sCT   HB   1       0.2234   0.1549
  sCT   HC   1       0.3025   0.1549
  sCT   H1   1       0.2936   0.1549
  sCT   H2   1       0.2846   0.1549
  sCT   H3   1       0.2757   0.1549
  sCT   HA   1       0.3000   0.1514
  sCT   H4   1       0.2955   0.1514
  sCT   H5   1       0.2911   0.1514
  sCT   HO   1       0.1700   0.0000
  sCT   HS   1       0.2234   0.1549
  sCT   HW   1       0.1700   0.0000
  sCT   HP   1       0.2680   0.1549
  sCT    I   1       0.3793   0.7818
  sCT   Cl   1       0.3900   0.3909
  sCT   Na   1       0.3364   0.0651
  sCT   IB   1       0.6154   0.3909
  sCT   MG   1       0.2406   1.1693
  sCT    N   1       0.3325   0.5097
  sCT   NA   1       0.3325   0.5097
  sCT   NB   1       0.3325   0.5097
  sCT   NC   1       0.3325   0.5097
  sCT   N2   1       0.3325   0.5097
  sCT   N3   1       0.3325   0.5097
  sCT   N*   1       0.3325   0.5097
  sCT    O   1       0.3180   0.5665
  sCT   OB   1       0.3180   0.5665
  sCT   OW   1       0.3275   0.4821
  sCT   OH   1       0.3233   0.5670
  sCT   O3   1       0.3233   0.5670
  sCT   OS   1       0.3200   0.5097
  sCT   O2   1       0.3180   0.5665
  sCT    P   1       0.3571   0.5528
  sCT    S   1       0.3482   0.6181
  sCT   SH   1       0.3482   0.6181
  sCT   CU   1       0.3400   0.3625
  sCT   FE   1       0.1700   0.0000
  sCT    K   1       0.4068   0.0224
  sCT   Rb   1       0.4333   0.0161
  sCT   Li   1       0.2713   0.1672
  sCT   Zn   1       0.2680   0.1382
  sCT HW_tip4pew   1       0.1700   0.0000
  sCT OW_tip4pew   1       0.3282   0.4987
  sCT HW_tip4p   1       0.1700   0.0000
  sCT OW_tip4p   1       0.3277   0.4867
  sCT HW_tip5p   1       0.1700   0.0000
  sCT OW_tip5p   1       0.3260   0.4945
  sCT HW_tip4pd   1       0.1700   0.0000
  sCT OW_tip4pd   1       0.3282   0.6041
  sCT   MW   1       0.1700   0.0000
  sCT MCH3   1       0.1700   0.0000
  sCT MNH3   1       0.1700   0.0000
  sCT   c3   1       0.3400   0.4089
  sCT   hc   1       0.3025   0.1549
  sCT    c   1       0.3400   0.3625
  sCT    o   1       0.3180   0.5665
  sCT    n   1       0.3325   0.5097
  sCT   h1   1       0.2936   0.1549
  sCT   ca   1       0.3400   0.3625
  sCT   ha   1       0.3000   0.1514
  sCT   n3   1       0.3325   0.5097
  sCT   hx   1       0.2680   0.1549
  sCT   n4   1       0.3325   0.5097
  sCT   hn   1       0.2234   0.1549
  sC1   Br   1       0.1700   0.0000
  sC1    C   1       0.3400   0.3625
  sC1   C6   1       0.3400   0.3625
  sC1   C5   1       0.3400   0.3625
  sC1   CA   1       0.3400   0.3625
  sC1   CB   1       0.3400   0.3625
  sC1   CC   1       0.3400   0.3625
  sC1   CK   1       0.3400   0.3625
  sC1   CM   1       0.3400   0.3625
  sC1   CN   1       0.3400   0.3625
  sC1   CQ   1       0.3400   0.3625
  sC1   CR   1       0.3400   0.3625
  sC1   CT   1       0.3400   0.4089
  sC1   C1   1       0.3400   0.4089
  sC1   C3   1       0.3400   0.4089
  sC1   C4   1       0.3400   0.4089
  sC1   C7   1       0.3400   0.4089
  sC1   C8   1       0.3400   0.4089
  sC1   C9   1       0.3400   0.4089
  sC1   CV   1       0.3400   0.3625
  sC1   CW   1       0.3400   0.3625
  sC1   C*   1       0.3400   0.3625
  sC1   C0   1       0.3226   0.8382
  sC1    F   1       0.3259   0.3053
  sC1    H   1       0.2234   0.1549
  sC1   HB   1       0.2234   0.1549
  sC1   HC   1       0.3025   0.1549
  sC1   H1   1       0.2936   0.1549
  sC1   H2   1       0.2846   0.1549
  sC1   H3   1       0.2757   0.1549
  sC1   HA   1       0.3000   0.1514
  sC1   H4   1       0.2955   0.1514
  sC1   H5   1       0.2911   0.1514
  sC1   HO   1       0.1700   0.0000
  sC1   HS   1       0.2234   0.1549
  sC1   HW   1       0.1700   0.0000
  sC1   HP   1       0.2680   0.1549
  sC1    I   1       0.3793   0.7818
  sC1   Cl   1       0.3900   0.3909
  sC1   Na   1       0.3364   0.0651
  sC1   IB   1       0.6154   0.3909
  sC1   MG   1       0.2406   1.1693
  sC1    N   1       0.3325   0.5097
  sC1   NA   1       0.3325   0.5097
  sC1   NB   1       0.3325   0.5097
  sC1   NC   1       0.3325   0.5097
  sC1   N2   1       0.3325   0.5097
  sC1   N3   1       0.3325   0.5097
  sC1   N*   1       0.3325   0.5097
  sC1    O   1       0.3180   0.5665
  sC1   OB   1       0.3180   0.5665
  sC1   OW   1       0.3275   0.4821
  sC1   OH   1       0.3233   0.5670
  sC1   O3   1       0.3233   0.5670
  sC1   OS   1       0.3200   0.5097
  sC1   O2   1       0.3180   0.5665
  sC1    P   1       0.3571   0.5528
  sC1    S   1       0.3482   0.6181
  sC1   SH   1       0.3482   0.6181
  sC1   CU   1       0.3400   0.3625
  sC1   FE   1       0.1700   0.0000
  sC1    K   1       0.4068   0.0224
  sC1   Rb   1       0.4333   0.0161
  sC1   Li   1       0.2713   0.1672
  sC1   Zn   1       0.2680   0.1382
  sC1 HW_tip4pew   1       0.1700   0.0000
  sC1 OW_tip4pew   1       0.3282   0.4987
  sC1 HW_tip4p   1       0.1700   0.0000
  sC1 OW_tip4p   1       0.3277   0.4867
  sC1 HW_tip5p   1       0.1700   0.0000
  sC1 OW_tip5p   1       0.3260   0.4945
  sC1 HW_tip4pd   1       0.1700   0.0000
  sC1 OW_tip4pd   1       0.3282   0.6041
  sC1   MW   1       0.1700   0.0000
  sC1 MCH3   1       0.1700   0.0000
  sC1 MNH3   1       0.1700   0.0000
  sC1   c3   1       0.3400   0.4089
  sC1   hc   1       0.3025   0.1549
  sC1    c   1       0.3400   0.3625
  sC1    o   1       0.3180   0.5665
  sC1    n   1       0.3325   0.5097
  sC1   h1   1       0.2936   0.1549
  sC1   ca   1       0.3400   0.3625
  sC1   ha   1       0.3000   0.1514
  sC1   n3   1       0.3325   0.5097
  sC1   hx   1       0.2680   0.1549
  sC1   n4   1       0.3325   0.5097
  sC1   hn   1       0.2234   0.1549
  sC3   Br   1       0.1700   0.0000
  sC3    C   1       0.3400   0.3625
  sC3   C6   1       0.3400   0.3625
  sC3   C5   1       0.3400   0.3625
  sC3   CA   1       0.3400   0.3625
  sC3   CB   1       0.3400   0.3625
  sC3   CC   1       0.3400   0.3625
  sC3   CK   1       0.3400   0.3625
  sC3   CM   1       0.3400   0.3625
  sC3   CN   1       0.3400   0.3625
  sC3   CQ   1       0.3400   0.3625
  sC3   CR   1       0.3400   0.3625
  sC3   CT   1       0.3400   0.4089
  sC3   C1   1       0.3400   0.4089
  sC3   C3   1       0.3400   0.4089
  sC3   C4   1       0.3400   0.4089
  sC3   C7   1       0.3400   0.4089
  sC3   C8   1       0.3400   0.4089
  sC3   C9   1       0.3400   0.4089
  sC3   CV   1       0.3400   0.3625
  sC3   CW   1       0.3400   0.3625
  sC3   C*   1       0.3400   0.3625
  sC3   C0   1       0.3226   0.8382
  sC3    F   1       0.3259   0.3053
  sC3    H   1       0.2234   0.1549
  sC3   HB   1       0.2234   0.1549
  sC3   HC   1       0.3025   0.1549
  sC3   H1   1       0.2936   0.1549
  sC3   H2   1       0.2846   0.1549
  sC3   H3   1       0.2757   0.1549
  sC3   HA   1       0.3000   0.1514
  sC3   H4   1       0.2955   0.1514
  sC3   H5   1       0.2911   0.1514
  sC3   HO   1       0.1700   0.0000
  sC3   HS   1       0.2234   0.1549
  sC3   HW   1       0.1700   0.0000
  sC3   HP   1       0.2680   0.1549
  sC3    I   1       0.3793   0.7818
  sC3   Cl   1       0.3900   0.3909
  sC3   Na   1       0.3364   0.0651
  sC3   IB   1       0.6154   0.3909
  sC3   MG   1       0.2406   1.1693
  sC3    N   1       0.3325   0.5097
  sC3   NA   1       0.3325   0.5097
  sC3   NB   1       0.3325   0.5097
  sC3   NC   1       0.3325   0.5097
  sC3   N2   1       0.3325   0.5097
  sC3   N3   1       0.3325   0.5097
  sC3   N*   1       0.3325   0.5097
  sC3    O   1       0.3180   0.5665
  sC3   OB   1       0.3180   0.5665
  sC3   OW   1       0.3275   0.4821
  sC3   OH   1       0.3233   0.5670
  sC3   O3   1       0.3233   0.5670
  sC3   OS   1       0.3200   0.5097
  sC3   O2   1       0.3180   0.5665
  sC3    P   1       0.3571   0.5528
  sC3    S   1       0.3482   0.6181
  sC3   SH   1       0.3482   0.6181
  sC3   CU   1       0.3400   0.3625
  sC3   FE   1       0.1700   0.0000
  sC3    K   1       0.4068   0.0224
  sC3   Rb   1       0.4333   0.0161
  sC3   Li   1       0.2713   0.1672
  sC3   Zn   1       0.2680   0.1382
  sC3 HW_tip4pew   1       0.1700   0.0000
  sC3 OW_tip4pew   1       0.3282   0.4987
  sC3 HW_tip4p   1       0.1700   0.0000
  sC3 OW_tip4p   1       0.3277   0.4867
  sC3 HW_tip5p   1       0.1700   0.0000
  sC3 OW_tip5p   1       0.3260   0.4945
  sC3 HW_tip4pd   1       0.1700   0.0000
  sC3 OW_tip4pd   1       0.3282   0.6041
  sC3   MW   1       0.1700   0.0000
  sC3 MCH3   1       0.1700   0.0000
  sC3 MNH3   1       0.1700   0.0000
  sC3   c3   1       0.3400   0.4089
  sC3   hc   1       0.3025   0.1549
  sC3    c   1       0.3400   0.3625
  sC3    o   1       0.3180   0.5665
  sC3    n   1       0.3325   0.5097
  sC3   h1   1       0.2936   0.1549
  sC3   ca   1       0.3400   0.3625
  sC3   ha   1       0.3000   0.1514
  sC3   n3   1       0.3325   0.5097
  sC3   hx   1       0.2680   0.1549
  sC3   n4   1       0.3325   0.5097
  sC3   hn   1       0.2234   0.1549
  sC4   Br   1       0.1700   0.0000
  sC4    C   1       0.3400   0.3625
  sC4   C6   1       0.3400   0.3625
  sC4   C5   1       0.3400   0.3625
  sC4   CA   1       0.3400   0.3625
  sC4   CB   1       0.3400   0.3625
  sC4   CC   1       0.3400   0.3625
  sC4   CK   1       0.3400   0.3625
  sC4   CM   1       0.3400   0.3625
  sC4   CN   1       0.3400   0.3625
  sC4   CQ   1       0.3400   0.3625
  sC4   CR   1       0.3400   0.3625
  sC4   CT   1       0.3400   0.4089
  sC4   C1   1       0.3400   0.4089
  sC4   C3   1       0.3400   0.4089
  sC4   C4   1       0.3400   0.4089
  sC4   C7   1       0.3400   0.4089
  sC4   C8   1       0.3400   0.4089
  sC4   C9   1       0.3400   0.4089
  sC4   CV   1       0.3400   0.3625
  sC4   CW   1       0.3400   0.3625
  sC4   C*   1       0.3400   0.3625
  sC4   C0   1       0.3226   0.8382
  sC4    F   1       0.3259   0.3053
  sC4    H   1       0.2234   0.1549
  sC4   HB   1       0.2234   0.1549
  sC4   HC   1       0.3025   0.1549
  sC4   H1   1       0.2936   0.1549
  sC4   H2   1       0.2846   0.1549
  sC4   H3   1       0.2757   0.1549
  sC4   HA   1       0.3000   0.1514
  sC4   H4   1       0.2955   0.1514
  sC4   H5   1       0.2911   0.1514
  sC4   HO   1       0.1700   0.0000
  sC4   HS   1       0.2234   0.1549
  sC4   HW   1       0.1700   0.0000
  sC4   HP   1       0.2680   0.1549
  sC4    I   1       0.3793   0.7818
  sC4   Cl   1       0.3900   0.3909
  sC4   Na   1       0.3364   0.0651
  sC4   IB   1       0.6154   0.3909
  sC4   MG   1       0.2406   1.1693
  sC4    N   1       0.3325   0.5097
  sC4   NA   1       0.3325   0.5097
  sC4   NB   1       0.3325   0.5097
  sC4   NC   1       0.3325   0.5097
  sC4   N2   1       0.3325   0.5097
  sC4   N3   1       0.3325   0.5097
  sC4   N*   1       0.3325   0.5097
  sC4    O   1       0.3180   0.5665
  sC4   OB   1       0.3180   0.5665
  sC4   OW   1       0.3275   0.4821
  sC4   OH   1       0.3233   0.5670
  sC4   O3   1       0.3233   0.5670
  sC4   OS   1       0.3200   0.5097
  sC4   O2   1       0.3180   0.5665
  sC4    P   1       0.3571   0.5528
  sC4    S   1       0.3482   0.6181
  sC4   SH   1       0.3482   0.6181
  sC4   CU   1       0.3400   0.3625
  sC4   FE   1       0.1700   0.0000
  sC4    K   1       0.4068   0.0224
  sC4   Rb   1       0.4333   0.0161
  sC4   Li   1       0.2713   0.1672
  sC4   Zn   1       0.2680   0.1382
  sC4 HW_tip4pew   1       0.1700   0.0000
  sC4 OW_tip4pew   1       0.3282   0.4987
  sC4 HW_tip4p   1       0.1700   0.0000
  sC4 OW_tip4p   1       0.3277   0.4867
  sC4 HW_tip5p   1       0.1700   0.0000
  sC4 OW_tip5p   1       0.3260   0.4945
  sC4 HW_tip4pd   1       0.1700   0.0000
  sC4 OW_tip4pd   1       0.3282   0.6041
  sC4   MW   1       0.1700   0.0000
  sC4 MCH3   1       0.1700   0.0000
  sC4 MNH3   1       0.1700   0.0000
  sC4   c3   1       0.3400   0.4089
  sC4   hc   1       0.3025   0.1549
  sC4    c   1       0.3400   0.3625
  sC4    o   1       0.3180   0.5665
  sC4    n   1       0.3325   0.5097
  sC4   h1   1       0.2936   0.1549
  sC4   ca   1       0.3400   0.3625
  sC4   ha   1       0.3000   0.1514
  sC4   n3   1       0.3325   0.5097
  sC4   hx   1       0.2680   0.1549
  sC4   n4   1       0.3325   0.5097
  sC4   hn   1       0.2234   0.1549
  sC7   Br   1       0.1700   0.0000
  sC7    C   1       0.3400   0.3625
  sC7   C6   1       0.3400   0.3625
  sC7   C5   1       0.3400   0.3625
  sC7   CA   1       0.3400   0.3625
  sC7   CB   1       0.3400   0.3625
  sC7   CC   1       0.3400   0.3625
  sC7   CK   1       0.3400   0.3625
  sC7   CM   1       0.3400   0.3625
  sC7   CN   1       0.3400   0.3625
  sC7   CQ   1       0.3400   0.3625
  sC7   CR   1       0.3400   0.3625
  sC7   CT   1       0.3400   0.4089
  sC7   C1   1       0.3400   0.4089
  sC7   C3   1       0.3400   0.4089
  sC7   C4   1       0.3400   0.4089
  sC7   C7   1       0.3400   0.4089
  sC7   C8   1       0.3400   0.4089
  sC7   C9   1       0.3400   0.4089
  sC7   CV   1       0.3400   0.3625
  sC7   CW   1       0.3400   0.3625
  sC7   C*   1       0.3400   0.3625
  sC7   C0   1       0.3226   0.8382
  sC7    F   1       0.3259   0.3053
  sC7    H   1       0.2234   0.1549
  sC7   HB   1       0.2234   0.1549
  sC7   HC   1       0.3025   0.1549
  sC7   H1   1       0.2936   0.1549
  sC7   H2   1       0.2846   0.1549
  sC7   H3   1       0.2757   0.1549
  sC7   HA   1       0.3000   0.1514
  sC7   H4   1       0.2955   0.1514
  sC7   H5   1       0.2911   0.1514
  sC7   HO   1       0.1700   0.0000
  sC7   HS   1       0.2234   0.1549
  sC7   HW   1       0.1700   0.0000
  sC7   HP   1       0.2680   0.1549
  sC7    I   1       0.3793   0.7818
  sC7   Cl   1       0.3900   0.3909
  sC7   Na   1       0.3364   0.0651
  sC7   IB   1       0.6154   0.3909
  sC7   MG   1       0.2406   1.1693
  sC7    N   1       0.3325   0.5097
  sC7   NA   1       0.3325   0.5097
  sC7   NB   1       0.3325   0.5097
  sC7   NC   1       0.3325   0.5097
  sC7   N2   1       0.3325   0.5097
  sC7   N3   1       0.3325   0.5097
  sC7   N*   1       0.3325   0.5097
  sC7    O   1       0.3180   0.5665
  sC7   OB   1       0.3180   0.5665
  sC7   OW   1       0.3275   0.4821
  sC7   OH   1       0.3233   0.5670
  sC7   O3   1       0.3233   0.5670
  sC7   OS   1       0.3200   0.5097
  sC7   O2   1       0.3180   0.5665
  sC7    P   1       0.3571   0.5528
  sC7    S   1       0.3482   0.6181
  sC7   SH   1       0.3482   0.6181
  sC7   CU   1       0.3400   0.3625
  sC7   FE   1       0.1700   0.0000
  sC7    K   1       0.4068   0.0224
  sC7   Rb   1       0.4333   0.0161
  sC7   Li   1       0.2713   0.1672
  sC7   Zn   1       0.2680   0.1382
  sC7 HW_tip4pew   1       0.1700   0.0000
  sC7 OW_tip4pew   1       0.3282   0.4987
  sC7 HW_tip4p   1       0.1700   0.0000
  sC7 OW_tip4p   1       0.3277   0.4867
  sC7 HW_tip5p   1       0.1700   0.0000
  sC7 OW_tip5p   1       0.3260   0.4945
  sC7 HW_tip4pd   1       0.1700   0.0000
  sC7 OW_tip4pd   1       0.3282   0.6041
  sC7   MW   1       0.1700   0.0000
  sC7 MCH3   1       0.1700   0.0000
  sC7 MNH3   1       0.1700   0.0000
  sC7   c3   1       0.3400   0.4089
  sC7   hc   1       0.3025   0.1549
  sC7    c   1       0.3400   0.3625
  sC7    o   1       0.3180   0.5665
  sC7    n   1       0.3325   0.5097
  sC7   h1   1       0.2936   0.1549
  sC7   ca   1       0.3400   0.3625
  sC7   ha   1       0.3000   0.1514
  sC7   n3   1       0.3325   0.5097
  sC7   hx   1       0.2680   0.1549
  sC7   n4   1       0.3325   0.5097
  sC7   hn   1       0.2234   0.1549
  sC8   Br   1       0.1700   0.0000
  sC8    C   1       0.3400   0.3625
  sC8   C6   1       0.3400   0.3625
  sC8   C5   1       0.3400   0.3625
  sC8   CA   1       0.3400   0.3625
  sC8   CB   1       0.3400   0.3625
  sC8   CC   1       0.3400   0.3625
  sC8   CK   1       0.3400   0.3625
  sC8   CM   1       0.3400   0.3625
  sC8   CN   1       0.3400   0.3625
  sC8   CQ   1       0.3400   0.3625
  sC8   CR   1       0.3400   0.3625
  sC8   CT   1       0.3400   0.4089
  sC8   C1   1       0.3400   0.4089
  sC8   C3   1       0.3400   0.4089
  sC8   C4   1       0.3400   0.4089
  sC8   C7   1       0.3400   0.4089
  sC8   C8   1       0.3400   0.4089
  sC8   C9   1       0.3400   0.4089
  sC8   CV   1       0.3400   0.3625
  sC8   CW   1       0.3400   0.3625
  sC8   C*   1       0.3400   0.3625
  sC8   C0   1       0.3226   0.8382
  sC8    F   1       0.3259   0.3053
  sC8    H   1       0.2234   0.1549
  sC8   HB   1       0.2234   0.1549
  sC8   HC   1       0.3025   0.1549
  sC8   H1   1       0.2936   0.1549
  sC8   H2   1       0.2846   0.1549
  sC8   H3   1       0.2757   0.1549
  sC8   HA   1       0.3000   0.1514
  sC8   H4   1       0.2955   0.1514
  sC8   H5   1       0.2911   0.1514
  sC8   HO   1       0.1700   0.0000
  sC8   HS   1       0.2234   0.1549
  sC8   HW   1       0.1700   0.0000
  sC8   HP   1       0.2680   0.1549
  sC8    I   1       0.3793   0.7818
  sC8   Cl   1       0.3900   0.3909
  sC8   Na   1       0.3364   0.0651
  sC8   IB   1       0.6154   0.3909
  sC8   MG   1       0.2406   1.1693
  sC8    N   1       0.3325   0.5097
  sC8   NA   1       0.3325   0.5097
  sC8   NB   1       0.3325   0.5097
  sC8   NC   1       0.3325   0.5097
  sC8   N2   1       0.3325   0.5097
  sC8   N3   1       0.3325   0.5097
  sC8   N*   1       0.3325   0.5097
  sC8    O   1       0.3180   0.5665
  sC8   OB   1       0.3180   0.5665
  sC8   OW   1       0.3275   0.4821
  sC8   OH   1       0.3233   0.5670
  sC8   O3   1       0.3233   0.5670
  sC8   OS   1       0.3200   0.5097
  sC8   O2   1       0.3180   0.5665
  sC8    P   1       0.3571   0.5528
  sC8    S   1       0.3482   0.6181
  sC8   SH   1       0.3482   0.6181
  sC8   CU   1       0.3400   0.3625
  sC8   FE   1       0.1700   0.0000
  sC8    K   1       0.4068   0.0224
  sC8   Rb   1       0.4333   0.0161
  sC8   Li   1       0.2713   0.1672
  sC8   Zn   1       0.2680   0.1382
  sC8 HW_tip4pew   1       0.1700   0.0000
  sC8 OW_tip4pew   1       0.3282   0.4987
  sC8 HW_tip4p   1       0.1700   0.0000
  sC8 OW_tip4p   1       0.3277   0.4867
  sC8 HW_tip5p   1       0.1700   0.0000
  sC8 OW_tip5p   1       0.3260   0.4945
  sC8 HW_tip4pd   1       0.1700   0.0000
  sC8 OW_tip4pd   1       0.3282   0.6041
  sC8   MW   1       0.1700   0.0000
  sC8 MCH3   1       0.1700   0.0000
  sC8 MNH3   1       0.1700   0.0000
  sC8   c3   1       0.3400   0.4089
  sC8   hc   1       0.3025   0.1549
  sC8    c   1       0.3400   0.3625
  sC8    o   1       0.3180   0.5665
  sC8    n   1       0.3325   0.5097
  sC8   h1   1       0.2936   0.1549
  sC8   ca   1       0.3400   0.3625
  sC8   ha   1       0.3000   0.1514
  sC8   n3   1       0.3325   0.5097
  sC8   hx   1       0.2680   0.1549
  sC8   n4   1       0.3325   0.5097
  sC8   hn   1       0.2234   0.1549
  sC9   Br   1       0.1700   0.0000
  sC9    C   1       0.3400   0.3625
  sC9   C6   1       0.3400   0.3625
  sC9   C5   1       0.3400   0.3625
  sC9   CA   1       0.3400   0.3625
  sC9   CB   1       0.3400   0.3625
  sC9   CC   1       0.3400   0.3625
  sC9   CK   1       0.3400   0.3625
  sC9   CM   1       0.3400   0.3625
  sC9   CN   1       0.3400   0.3625
  sC9   CQ   1       0.3400   0.3625
  sC9   CR   1       0.3400   0.3625
  sC9   CT   1       0.3400   0.4089
  sC9   C1   1       0.3400   0.4089
  sC9   C3   1       0.3400   0.4089
  sC9   C4   1       0.3400   0.4089
  sC9   C7   1       0.3400   0.4089
  sC9   C8   1       0.3400   0.4089
  sC9   C9   1       0.3400   0.4089
  sC9   CV   1       0.3400   0.3625
  sC9   CW   1       0.3400   0.3625
  sC9   C*   1       0.3400   0.3625
  sC9   C0   1       0.3226   0.8382
  sC9    F   1       0.3259   0.3053
  sC9    H   1       0.2234   0.1549
  sC9   HB   1       0.2234   0.1549
  sC9   HC   1       0.3025   0.1549
  sC9   H1   1       0.2936   0.1549
  sC9   H2   1       0.2846   0.1549
  sC9   H3   1       0.2757   0.1549
  sC9   HA   1       0.3000   0.1514
  sC9   H4   1       0.2955   0.1514
  sC9   H5   1       0.2911   0.1514
  sC9   HO   1       0.1700   0.0000
  sC9   HS   1       0.2234   0.1549
  sC9   HW   1       0.1700   0.0000
  sC9   HP   1       0.2680   0.1549
  sC9    I   1       0.3793   0.7818
  sC9   Cl   1       0.3900   0.3909
  sC9   Na   1       0.3364   0.0651
  sC9   IB   1       0.6154   0.3909
  sC9   MG   1       0.2406   1.1693
  sC9    N   1       0.3325   0.5097
  sC9   NA   1       0.3325   0.5097
  sC9   NB   1       0.3325   0.5097
  sC9   NC   1       0.3325   0.5097
  sC9   N2   1       0.3325   0.5097
  sC9   N3   1       0.3325   0.5097
  sC9   N*   1       0.3325   0.5097
  sC9    O   1       0.3180   0.5665
  sC9   OB   1       0.3180   0.5665
  sC9   OW   1       0.3275   0.4821
  sC9   OH   1       0.3233   0.5670
  sC9   O3   1       0.3233   0.5670
  sC9   OS   1       0.3200   0.5097
  sC9   O2   1       0.3180   0.5665
  sC9    P   1       0.3571   0.5528
  sC9    S   1       0.3482   0.6181
  sC9   SH   1       0.3482   0.6181
  sC9   CU   1       0.3400   0.3625
  sC9   FE   1       0.1700   0.0000
  sC9    K   1       0.4068   0.0224
  sC9   Rb   1       0.4333   0.0161
  sC9   Li   1       0.2713   0.1672
  sC9   Zn   1       0.2680   0.1382
  sC9 HW_tip4pew   1       0.1700   0.0000
  sC9 OW_tip4pew   1       0.3282   0.4987
  sC9 HW_tip4p   1       0.1700   0.0000
  sC9 OW_tip4p   1       0.3277   0.4867
  sC9 HW_tip5p   1       0.1700   0.0000
  sC9 OW_tip5p   1       0.3260   0.4945
  sC9 HW_tip4pd   1       0.1700   0.0000
  sC9 OW_tip4pd   1       0.3282   0.6041
  sC9   MW   1       0.1700   0.0000
  sC9 MCH3   1       0.1700   0.0000
  sC9 MNH3   1       0.1700   0.0000
  sC9   c3   1       0.3400   0.4089
  sC9   hc   1       0.3025   0.1549
  sC9    c   1       0.3400   0.3625
  sC9    o   1       0.3180   0.5665
  sC9    n   1       0.3325   0.5097
  sC9   h1   1       0.2936   0.1549
  sC9   ca   1       0.3400   0.3625
  sC9   ha   1       0.3000   0.1514
  sC9   n3   1       0.3325   0.5097
  sC9   hx   1       0.2680   0.1549
  sC9   n4   1       0.3325   0.5097
  sC9   hn   1       0.2234   0.1549
  sCV   Br   1       0.1700   0.0000
  sCV    C   1       0.3400   0.3214
  sCV   C6   1       0.3400   0.3214
  sCV   C5   1       0.3400   0.3214
  sCV   CA   1       0.3400   0.3214
  sCV   CB   1       0.3400   0.3214
  sCV   CC   1       0.3400   0.3214
  sCV   CK   1       0.3400   0.3214
  sCV   CM   1       0.3400   0.3214
  sCV   CN   1       0.3400   0.3214
  sCV   CQ   1       0.3400   0.3214
  sCV   CR   1       0.3400   0.3214
  sCV   CT   1       0.3400   0.3625
  sCV   C1   1       0.3400   0.3625
  sCV   C3   1       0.3400   0.3625
  sCV   C4   1       0.3400   0.3625
  sCV   C7   1       0.3400   0.3625
  sCV   C8   1       0.3400   0.3625
  sCV   C9   1       0.3400   0.3625
  sCV   CV   1       0.3400   0.3214
  sCV   CW   1       0.3400   0.3214
  sCV   C*   1       0.3400   0.3214
  sCV   C0   1       0.3226   0.7432
  sCV    F   1       0.3259   0.2707
  sCV    H   1       0.2234   0.1373
  sCV   HB   1       0.2234   0.1373
  sCV   HC   1       0.3025   0.1373
  sCV   H1   1       0.2936   0.1373
  sCV   H2   1       0.2846   0.1373
  sCV   H3   1       0.2757   0.1373
  sCV   HA   1       0.3000   0.1342
  sCV   H4   1       0.2955   0.1342
  sCV   H5   1       0.2911   0.1342
  sCV   HO   1       0.1700   0.0000
  sCV   HS   1       0.2234   0.1373
  sCV   HW   1       0.1700   0.0000
  sCV   HP   1       0.2680   0.1373
  sCV    I   1       0.3793   0.6932
  sCV   Cl   1       0.3900   0.3466
  sCV   Na   1       0.3364   0.0577
  sCV   IB   1       0.6154   0.3466
  sCV   MG   1       0.2406   1.0367
  sCV    N   1       0.3325   0.4519
  sCV   NA   1       0.3325   0.4519
  sCV   NB   1       0.3325   0.4519
  sCV   NC   1       0.3325   0.4519
  sCV   N2   1       0.3325   0.4519
  sCV   N3   1       0.3325   0.4519
  sCV   N*   1       0.3325   0.4519
  sCV    O   1       0.3180   0.5023
  sCV   OB   1       0.3180   0.5023
  sCV   OW   1       0.3275   0.4275
  sCV   OH   1       0.3233   0.5028
  sCV   O3   1       0.3233   0.5028
  sCV   OS   1       0.3200   0.4519
  sCV   O2   1       0.3180   0.5023
  sCV    P   1       0.3571   0.4902
  sCV    S   1       0.3482   0.5480
  sCV   SH   1       0.3482   0.5480
  sCV   CU   1       0.3400   0.3214
  sCV   FE   1       0.1700   0.0000
  sCV    K   1       0.4068   0.0199
  sCV   Rb   1       0.4333   0.0143
  sCV   Li   1       0.2713   0.1483
  sCV   Zn   1       0.2680   0.1225
  sCV HW_tip4pew   1       0.1700   0.0000
  sCV OW_tip4pew   1       0.3282   0.4422
  sCV HW_tip4p   1       0.1700   0.0000
  sCV OW_tip4p   1       0.3277   0.4315
  sCV HW_tip5p   1       0.1700   0.0000
  sCV OW_tip5p   1       0.3260   0.4384
  sCV HW_tip4pd   1       0.1700   0.0000
  sCV OW_tip4pd   1       0.3282   0.5356
  sCV   MW   1       0.1700   0.0000
  sCV MCH3   1       0.1700   0.0000
  sCV MNH3   1       0.1700   0.0000
  sCV   c3   1       0.3400   0.3625
  sCV   hc   1       0.3025   0.1373
  sCV    c   1       0.3400   0.3214
  sCV    o   1       0.3180   0.5023
  sCV    n   1       0.3325   0.4519
  sCV   h1   1       0.2936   0.1373
  sCV   ca   1       0.3400   0.3214
  sCV   ha   1       0.3000   0.1342
  sCV   n3   1       0.3325   0.4519
  sCV   hx   1       0.2680   0.1373
  sCV   n4   1       0.3325   0.4519
  sCV   hn   1       0.2234   0.1373
  sCW   Br   1       0.1700   0.0000
  sCW    C   1       0.3400   0.3214
  sCW   C6   1       0.3400   0.3214
  sCW   C5   1       0.3400   0.3214
  sCW   CA   1       0.3400   0.3214
  sCW   CB   1       0.3400   0.3214
  sCW   CC   1       0.3400   0.3214
  sCW   CK   1       0.3400   0.3214
  sCW   CM   1       0.3400   0.3214
  sCW   CN   1       0.3400   0.3214
  sCW   CQ   1       0.3400   0.3214
  sCW   CR   1       0.3400   0.3214
  sCW   CT   1       0.3400   0.3625
  sCW   C1   1       0.3400   0.3625
  sCW   C3   1       0.3400   0.3625
  sCW   C4   1       0.3400   0.3625
  sCW   C7   1       0.3400   0.3625
  sCW   C8   1       0.3400   0.3625
  sCW   C9   1       0.3400   0.3625
  sCW   CV   1       0.3400   0.3214
  sCW   CW   1       0.3400   0.3214
  sCW   C*   1       0.3400   0.3214
  sCW   C0   1       0.3226   0.7432
  sCW    F   1       0.3259   0.2707
  sCW    H   1       0.2234   0.1373
  sCW   HB   1       0.2234   0.1373
  sCW   HC   1       0.3025   0.1373
  sCW   H1   1       0.2936   0.1373
  sCW   H2   1       0.2846   0.1373
  sCW   H3   1       0.2757   0.1373
  sCW   HA   1       0.3000   0.1342
  sCW   H4   1       0.2955   0.1342
  sCW   H5   1       0.2911   0.1342
  sCW   HO   1       0.1700   0.0000
  sCW   HS   1       0.2234   0.1373
  sCW   HW   1       0.1700   0.0000
  sCW   HP   1       0.2680   0.1373
  sCW    I   1       0.3793   0.6932
  sCW   Cl   1       0.3900   0.3466
  sCW   Na   1       0.3364   0.0577
  sCW   IB   1       0.6154   0.3466
  sCW   MG   1       0.2406   1.0367
  sCW    N   1       0.3325   0.4519
  sCW   NA   1       0.3325   0.4519
  sCW   NB   1       0.3325   0.4519
  sCW   NC   1       0.3325   0.4519
  sCW   N2   1       0.3325   0.4519
  sCW   N3   1       0.3325   0.4519
  sCW   N*   1       0.3325   0.4519
  sCW    O   1       0.3180   0.5023
  sCW   OB   1       0.3180   0.5023
  sCW   OW   1       0.3275   0.4275
  sCW   OH   1       0.3233   0.5028
  sCW   O3   1       0.3233   0.5028
  sCW   OS   1       0.3200   0.4519
  sCW   O2   1       0.3180   0.5023
  sCW    P   1       0.3571   0.4902
  sCW    S   1       0.3482   0.5480
  sCW   SH   1       0.3482   0.5480
  sCW   CU   1       0.3400   0.3214
  sCW   FE   1       0.1700   0.0000
  sCW    K   1       0.4068   0.0199
  sCW   Rb   1       0.4333   0.0143
  sCW   Li   1       0.2713   0.1483
  sCW   Zn   1       0.2680   0.1225
  sCW HW_tip4pew   1       0.1700   0.0000
  sCW OW_tip4pew   1       0.3282   0.4422
  sCW HW_tip4p   1       0.1700   0.0000
  sCW OW_tip4p   1       0.3277   0.4315
  sCW HW_tip5p   1       0.1700   0.0000
  sCW OW_tip5p   1       0.3260   0.4384
  sCW HW_tip4pd   1       0.1700   0.0000
  sCW OW_tip4pd   1       0.3282   0.5356
  sCW   MW   1       0.1700   0.0000
  sCW MCH3   1       0.1700   0.0000
  sCW MNH3   1       0.1700   0.0000
  sCW   c3   1       0.3400   0.3625
  sCW   hc   1       0.3025   0.1373
  sCW    c   1       0.3400   0.3214
  sCW    o   1       0.3180   0.5023
  sCW    n   1       0.3325   0.4519
  sCW   h1   1       0.2936   0.1373
  sCW   ca   1       0.3400   0.3214
  sCW   ha   1       0.3000   0.1342
  sCW   n3   1       0.3325   0.4519
  sCW   hx   1       0.2680   0.1373
  sCW   n4   1       0.3325   0.4519
  sCW   hn   1       0.2234   0.1373
  sC*   Br   1       0.1700   0.0000
  sC*    C   1       0.3400   0.3214
  sC*   C6   1       0.3400   0.3214
  sC*   C5   1       0.3400   0.3214
  sC*   CA   1       0.3400   0.3214
  sC*   CB   1       0.3400   0.3214
  sC*   CC   1       0.3400   0.3214
  sC*   CK   1       0.3400   0.3214
  sC*   CM   1       0.3400   0.3214
  sC*   CN   1       0.3400   0.3214
  sC*   CQ   1       0.3400   0.3214
  sC*   CR   1       0.3400   0.3214
  sC*   CT   1       0.3400   0.3625
  sC*   C1   1       0.3400   0.3625
  sC*   C3   1       0.3400   0.3625
  sC*   C4   1       0.3400   0.3625
  sC*   C7   1       0.3400   0.3625
  sC*   C8   1       0.3400   0.3625
  sC*   C9   1       0.3400   0.3625
  sC*   CV   1       0.3400   0.3214
  sC*   CW   1       0.3400   0.3214
  sC*   C*   1       0.3400   0.3214
  sC*   C0   1       0.3226   0.7432
  sC*    F   1       0.3259   0.2707
  sC*    H   1       0.2234   0.1373
  sC*   HB   1       0.2234   0.1373
  sC*   HC   1       0.3025   0.1373
  sC*   H1   1       0.2936   0.1373
  sC*   H2   1       0.2846   0.1373
  sC*   H3   1       0.2757   0.1373
  sC*   HA   1       0.3000   0.1342
  sC*   H4   1       0.2955   0.1342
  sC*   H5   1       0.2911   0.1342
  sC*   HO   1       0.1700   0.0000
  sC*   HS   1       0.2234   0.1373
  sC*   HW   1       0.1700   0.0000
  sC*   HP   1       0.2680   0.1373
  sC*    I   1       0.3793   0.6932
  sC*   Cl   1       0.3900   0.3466
  sC*   Na   1       0.3364   0.0577
  sC*   IB   1       0.6154   0.3466
  sC*   MG   1       0.2406   1.0367
  sC*    N   1       0.3325   0.4519
  sC*   NA   1       0.3325   0.4519
  sC*   NB   1       0.3325   0.4519
  sC*   NC   1       0.3325   0.4519
  sC*   N2   1       0.3325   0.4519
  sC*   N3   1       0.3325   0.4519
  sC*   N*   1       0.3325   0.4519
  sC*    O   1       0.3180   0.5023
  sC*   OB   1       0.3180   0.5023
  sC*   OW   1       0.3275   0.4275
  sC*   OH   1       0.3233   0.5028
  sC*   O3   1       0.3233   0.5028
  sC*   OS   1       0.3200   0.4519
  sC*   O2   1       0.3180   0.5023
  sC*    P   1       0.3571   0.4902
  sC*    S   1       0.3482   0.5480
  sC*   SH   1       0.3482   0.5480
  sC*   CU   1       0.3400   0.3214
  sC*   FE   1       0.1700   0.0000
  sC*    K   1       0.4068   0.0199
  sC*   Rb   1       0.4333   0.0143
  sC*   Li   1       0.2713   0.1483
  sC*   Zn   1       0.2680   0.1225
  sC* HW_tip4pew   1       0.1700   0.0000
  sC* OW_tip4pew   1       0.3282   0.4422
  sC* HW_tip4p   1       0.1700   0.0000
  sC* OW_tip4p   1       0.3277   0.4315
  sC* HW_tip5p   1       0.1700   0.0000
  sC* OW_tip5p   1       0.3260   0.4384
  sC* HW_tip4pd   1       0.1700   0.0000
  sC* OW_tip4pd   1       0.3282   0.5356
  sC*   MW   1       0.1700   0.0000
  sC* MCH3   1       0.1700   0.0000
  sC* MNH3   1       0.1700   0.0000
  sC*   c3   1       0.3400   0.3625
  sC*   hc   1       0.3025   0.1373
  sC*    c   1       0.3400   0.3214
  sC*    o   1       0.3180   0.5023
  sC*    n   1       0.3325   0.4519
  sC*   h1   1       0.2936   0.1373
  sC*   ca   1       0.3400   0.3214
  sC*   ha   1       0.3000   0.1342
  sC*   n3   1       0.3325   0.4519
  sC*   hx   1       0.2680   0.1373
  sC*   n4   1       0.3325   0.4519
  sC*   hn   1       0.2234   0.1373
  sC0   Br   1       0.1526   0.0000
  sC0    C   1       0.3226   0.7432
  sC0   C6   1       0.3226   0.7432
  sC0   C5   1       0.3226   0.7432
  sC0   CA   1       0.3226   0.7432
  sC0   CB   1       0.3226   0.7432
  sC0   CC   1       0.3226   0.7432
  sC0   CK   1       0.3226   0.7432
  sC0   CM   1       0.3226   0.7432
  sC0   CN   1       0.3226   0.7432
  sC0   CQ   1       0.3226   0.7432
  sC0   CR   1       0.3226   0.7432
  sC0   CT   1       0.3226   0.8382
  sC0   C1   1       0.3226   0.8382
  sC0   C3   1       0.3226   0.8382
  sC0   C4   1       0.3226   0.8382
  sC0   C7   1       0.3226   0.8382
  sC0   C8   1       0.3226   0.8382
  sC0   C9   1       0.3226   0.8382
  sC0   CV   1       0.3226   0.7432
  sC0   CW   1       0.3226   0.7432
  sC0   C*   1       0.3226   0.7432
  sC0   C0   1       0.3052   1.7185
  sC0    F   1       0.3085   0.6259
  sC0    H   1       0.2061   0.3175
  sC0   HB   1       0.2061   0.3175
  sC0   HC   1       0.2851   0.3175
  sC0   H1   1       0.2762   0.3175
  sC0   H2   1       0.2673   0.3175
  sC0   H3   1       0.2584   0.3175
  sC0   HA   1       0.2826   0.3104
  sC0   H4   1       0.2781   0.3104
  sC0   H5   1       0.2737   0.3104
  sC0   HO   1       0.1526   0.0000
  sC0   HS   1       0.2061   0.3175
  sC0   HW   1       0.1526   0.0000
  sC0   HP   1       0.2506   0.3175
  sC0    I   1       0.3620   1.6028
  sC0   Cl   1       0.3727   0.8014
  sC0   Na   1       0.3190   0.1334
  sC0   IB   1       0.5981   0.8014
  sC0   MG   1       0.2232   2.3972
  sC0    N   1       0.3151   1.0449
  sC0   NA   1       0.3151   1.0449
  sC0   NB   1       0.3151   1.0449
  sC0   NC   1       0.3151   1.0449
  sC0   N2   1       0.3151   1.0449
  sC0   N3   1       0.3151   1.0449
  sC0   N*   1       0.3151   1.0449
  sC0    O   1       0.3006   1.1614
  sC0   OB   1       0.3006   1.1614
  sC0   OW   1       0.3102   0.9884
  sC0   OH   1       0.3059   1.1625
  sC0   O3   1       0.3059   1.1625
  sC0   OS   1       0.3026   1.0449
  sC0   O2   1       0.3006   1.1614
  sC0    P   1       0.3397   1.1334
  sC0    S   1       0.3308   1.2672
  sC0   SH   1       0.3308   1.2672
  sC0   CU   1       0.3226   0.7432
  sC0   FE   1       0.1526   0.0000
  sC0    K   1       0.3894   0.0459
  sC0   Rb   1       0.4160   0.0330
  sC0   Li   1       0.2539   0.3428
  sC0   Zn   1       0.2506   0.2833
  sC0 HW_tip4pew   1       0.1526   0.0000
  sC0 OW_tip4pew   1       0.3108   1.0224
  sC0 HW_tip4p   1       0.1526   0.0000
  sC0 OW_tip4p   1       0.3103   0.9978
  sC0 HW_tip5p   1       0.1526   0.0000
  sC0 OW_tip5p   1       0.3086   1.0137
  sC0 HW_tip4pd   1       0.1526   0.0000
  sC0 OW_tip4pd   1       0.3109   1.2384
  sC0   MW   1       0.1526   0.0000
  sC0 MCH3   1       0.1526   0.0000
  sC0 MNH3   1       0.1526   0.0000
  sC0   c3   1       0.3226   0.8382
  sC0   hc   1       0.2851   0.3175
  sC0    c   1       0.3226   0.7432
  sC0    o   1       0.3006   1.1614
  sC0    n   1       0.3151   1.0449
  sC0   h1   1       0.2762   0.3175
  sC0   ca   1       0.3226   0.7432
  sC0   ha   1       0.2826   0.3104
  sC0   n3   1       0.3151   1.0449
  sC0   hx   1       0.2506   0.3175
  sC0   n4   1       0.3151   1.0449
  sC0   hn   1       0.2061   0.3175
   sF   Br   1       0.1559   0.0000
   sF    C   1       0.3259   0.2707
   sF   C6   1       0.3259   0.2707
   sF   C5   1       0.3259   0.2707
   sF   CA   1       0.3259   0.2707
   sF   CB   1       0.3259   0.2707
   sF   CC   1       0.3259   0.2707
   sF   CK   1       0.3259   0.2707
   sF   CM   1       0.3259   0.2707
   sF   CN   1       0.3259   0.2707
   sF   CQ   1       0.3259   0.2707
   sF   CR   1       0.3259   0.2707
   sF   CT   1       0.3259   0.3053
   sF   C1   1       0.3259   0.3053
   sF   C3   1       0.3259   0.3053
   sF   C4   1       0.3259   0.3053
   sF   C7   1       0.3259   0.3053
   sF   C8   1       0.3259   0.3053
   sF   C9   1       0.3259   0.3053
   sF   CV   1       0.3259   0.2707
   sF   CW   1       0.3259   0.2707
   sF   C*   1       0.3259   0.2707
   sF   C0   1       0.3085   0.6259
   sF    F   1       0.3118   0.2280
   sF    H   1       0.2094   0.1157
   sF   HB   1       0.2094   0.1157
   sF   HC   1       0.2884   0.1157
   sF   H1   1       0.2795   0.1157
   sF   H2   1       0.2706   0.1157
   sF   H3   1       0.2617   0.1157
   sF   HA   1       0.2859   0.1131
   sF   H4   1       0.2814   0.1131
   sF   H5   1       0.2770   0.1131
   sF   HO   1       0.1559   0.0000
   sF   HS   1       0.2094   0.1157
   sF   HW   1       0.1559   0.0000
   sF   HP   1       0.2539   0.1157
   sF    I   1       0.3653   0.5838
   sF   Cl   1       0.3760   0.2919
   sF   Na   1       0.3223   0.0486
   sF   IB   1       0.6014   0.2919
   sF   MG   1       0.2265   0.8731
   sF    N   1       0.3184   0.3806
   sF   NA   1       0.3184   0.3806
   sF   NB   1       0.3184   0.3806
   sF   NC   1       0.3184   0.3806
   sF   N2   1       0.3184   0.3806
   sF   N3   1       0.3184   0.3806
   sF   N*   1       0.3184   0.3806
   sF    O   1       0.3039   0.4230
   sF   OB   1       0.3039   0.4230
   sF   OW   1       0.3134   0.3600
   sF   OH   1       0.3092   0.4234
   sF   O3   1       0.3092   0.4234
   sF   OS   1       0.3059   0.3806
   sF   O2   1       0.3039   0.4230
   sF    P   1       0.3430   0.4128
   sF    S   1       0.3341   0.4615
   sF   SH   1       0.3341   0.4615
   sF   CU   1       0.3259   0.2707
   sF   FE   1       0.1559   0.0000
   sF    K   1       0.3927   0.0167
   sF   Rb   1       0.4193   0.0120
   sF   Li   1       0.2572   0.1249
   sF   Zn   1       0.2539   0.1032
   sF HW_tip4pew   1       0.1559   0.0000
   sF OW_tip4pew   1       0.3141   0.3724
   sF HW_tip4p   1       0.1559   0.0000
   sF OW_tip4p   1       0.3136   0.3634
   sF HW_tip5p   1       0.1559   0.0000
   sF OW_tip5p   1       0.3119   0.3692
   sF HW_tip4pd   1       0.1559   0.0000
   sF OW_tip4pd   1       0.3142   0.4511
   sF   MW   1       0.1559   0.0000
   sF MCH3   1       0.1559   0.0000
   sF MNH3   1       0.1559   0.0000
   sF   c3   1       0.3259   0.3053
   sF   hc   1       0.2884   0.1157
   sF    c   1       0.3259   0.2707
   sF    o   1       0.3039   0.4230
   sF    n   1       0.3184   0.3806
   sF   h1   1       0.2795   0.1157
   sF   ca   1       0.3259   0.2707
   sF   ha   1       0.2859   0.1131
   sF   n3   1       0.3184   0.3806
   sF   hx   1       0.2539   0.1157
   sF   n4   1       0.3184   0.3806
   sF   hn   1       0.2094   0.1157
   sH   Br   1       0.0535   0.0000
   sH    C   1       0.2234   0.1373
   sH   C6   1       0.2234   0.1373
   sH   C5   1       0.2234   0.1373
   sH   CA   1       0.2234   0.1373
   sH   CB   1       0.2234   0.1373
   sH   CC   1       0.2234   0.1373
   sH   CK   1       0.2234   0.1373
   sH   CM   1       0.2234   0.1373
   sH   CN   1       0.2234   0.1373
   sH   CQ   1       0.2234   0.1373
   sH   CR   1       0.2234   0.1373
   sH   CT   1       0.2234   0.1549
   sH   C1   1       0.2234   0.1549
   sH   C3   1       0.2234   0.1549
   sH   C4   1       0.2234   0.1549
   sH   C7   1       0.2234   0.1549
   sH   C8   1       0.2234   0.1549
   sH   C9   1       0.2234   0.1549
   sH   CV   1       0.2234   0.1373
   sH   CW   1       0.2234   0.1373
   sH   C*   1       0.2234   0.1373
   sH   C0   1       0.2061   0.3175
   sH    F   1       0.2094   0.1157
   sH    H   1       0.1069   0.0587
   sH   HB   1       0.1069   0.0587
   sH   HC   1       0.1859   0.0587
   sH   H1   1       0.1770   0.0587
   sH   H2   1       0.1681   0.0587
   sH   H3   1       0.1592   0.0587
   sH   HA   1       0.1834   0.0574
   sH   H4   1       0.1790   0.0574
   sH   H5   1       0.1745   0.0574
   sH   HO   1       0.0535   0.0000
   sH   HS   1       0.1069   0.0587
   sH   HW   1       0.0535   0.0000
   sH   HP   1       0.1515   0.0587
   sH    I   1       0.2628   0.2962
   sH   Cl   1       0.2735   0.1481
   sH   Na   1       0.2199   0.0246
   sH   IB   1       0.4989   0.1481
   sH   MG   1       0.1241   0.4430
   sH    N   1       0.2160   0.1931
   sH   NA   1       0.2160   0.1931
   sH   NB   1       0.2160   0.1931
   sH   NC   1       0.2160   0.1931
   sH   N2   1       0.2160   0.1931
   sH   N3   1       0.2160   0.1931
   sH   N*   1       0.2160   0.1931
   sH    O   1       0.2014   0.2146
   sH   OB   1       0.2014   0.2146
   sH   OW   1       0.2110   0.1826
   sH   OH   1       0.2068   0.2148
   sH   O3   1       0.2068   0.2148
   sH   OS   1       0.2035   0.1931
   sH   O2   1       0.2014   0.2146
   sH    P   1       0.2405   0.2094
   sH    S   1       0.2316   0.2342
   sH   SH   1       0.2316   0.2342
   sH   CU   1       0.2234   0.1373
   sH   FE   1       0.0535   0.0000
   sH    K   1       0.2903   0.0085
   sH   Rb   1       0.3168   0.0061
   sH   Li   1       0.1547   0.0634
   sH   Zn   1       0.1515   0.0524
   sH HW_tip4pew   1       0.0535   0.0000
   sH OW_tip4pew   1       0.2117   0.1889
   sH HW_tip4p   1       0.0535   0.0000
   sH OW_tip4p   1       0.2111   0.1844
   sH HW_tip5p   1       0.0535   0.0000
   sH OW_tip5p   1       0.2095   0.1873
   sH HW_tip4pd   1       0.0535   0.0000
   sH OW_tip4pd   1       0.2117   0.2288
   sH   MW   1       0.0535   0.0000
   sH MCH3   1       0.0535   0.0000
   sH MNH3   1       0.0535   0.0000
   sH   c3   1       0.2234   0.1549
   sH   hc   1       0.1859   0.0587
   sH    c   1       0.2234   0.1373
   sH    o   1       0.2014   0.2146
   sH    n   1       0.2160   0.1931
   sH   h1   1       0.1770   0.0587
   sH   ca   1       0.2234   0.1373
   sH   ha   1       0.1834   0.0574
   sH   n3   1       0.2160   0.1931
   sH   hx   1       0.1515   0.0587
   sH   n4   1       0.2160   0.1931
   sH   hn   1       0.1069   0.0587
  sHB   Br   1       0.0535   0.0000
  sHB    C   1       0.2234   0.1373
  sHB   C6   1       0.2234   0.1373
  sHB   C5   1       0.2234   0.1373
  sHB   CA   1       0.2234   0.1373
  sHB   CB   1       0.2234   0.1373
  sHB   CC   1       0.2234   0.1373
  sHB   CK   1       0.2234   0.1373
  sHB   CM   1       0.2234   0.1373
  sHB   CN   1       0.2234   0.1373
  sHB   CQ   1       0.2234   0.1373
  sHB   CR   1       0.2234   0.1373
  sHB   CT   1       0.2234   0.1549
  sHB   C1   1       0.2234   0.1549
  sHB   C3   1       0.2234   0.1549
  sHB   C4   1       0.2234   0.1549
  sHB   C7   1       0.2234   0.1549
  sHB   C8   1       0.2234   0.1549
  sHB   C9   1       0.2234   0.1549
  sHB   CV   1       0.2234   0.1373
  sHB   CW   1       0.2234   0.1373
  sHB   C*   1       0.2234   0.1373
  sHB   C0   1       0.2061   0.3175
  sHB    F   1       0.2094   0.1157
  sHB    H   1       0.1069   0.0587
  sHB   HB   1       0.1069   0.0587
  sHB   HC   1       0.1859   0.0587
  sHB   H1   1       0.1770   0.0587
  sHB   H2   1       0.1681   0.0587
  sHB   H3   1       0.1592   0.0587
  sHB   HA   1       0.1834   0.0574
  sHB   H4   1       0.1790   0.0574
  sHB   H5   1       0.1745   0.0574
  sHB   HO   1       0.0535   0.0000
  sHB   HS   1       0.1069   0.0587
  sHB   HW   1       0.0535   0.0000
  sHB   HP   1       0.1515   0.0587
  sHB    I   1       0.2628   0.2962
  sHB   Cl   1       0.2735   0.1481
  sHB   Na   1       0.2199   0.0246
  sHB   IB   1       0.4989   0.1481
  sHB   MG   1       0.1241   0.4430
  sHB    N   1       0.2160   0.1931
  sHB   NA   1       0.2160   0.1931
  sHB   NB   1       0.2160   0.1931
  sHB   NC   1       0.2160   0.1931
  sHB   N2   1       0.2160   0.1931
  sHB   N3   1       0.2160   0.1931
  sHB   N*   1       0.2160   0.1931
  sHB    O   1       0.2014   0.2146
  sHB   OB   1       0.2014   0.2146
  sHB   OW   1       0.2110   0.1826
  sHB   OH   1       0.2068   0.2148
  sHB   O3   1       0.2068   0.2148
  sHB   OS   1       0.2035   0.1931
  sHB   O2   1       0.2014   0.2146
  sHB    P   1       0.2405   0.2094
  sHB    S   1       0.2316   0.2342
  sHB   SH   1       0.2316   0.2342
  sHB   CU   1       0.2234   0.1373
  sHB   FE   1       0.0535   0.0000
  sHB    K   1       0.2903   0.0085
  sHB   Rb   1       0.3168   0.0061
  sHB   Li   1       0.1547   0.0634
  sHB   Zn   1       0.1515   0.0524
  sHB HW_tip4pew   1       0.0535   0.0000
  sHB OW_tip4pew   1       0.2117   0.1889
  sHB HW_tip4p   1       0.0535   0.0000
  sHB OW_tip4p   1       0.2111   0.1844
  sHB HW_tip5p   1       0.0535   0.0000
  sHB OW_tip5p   1       0.2095   0.1873
  sHB HW_tip4pd   1       0.0535   0.0000
  sHB OW_tip4pd   1       0.2117   0.2288
  sHB   MW   1       0.0535   0.0000
  sHB MCH3   1       0.0535   0.0000
  sHB MNH3   1       0.0535   0.0000
  sHB   c3   1       0.2234   0.1549
  sHB   hc   1       0.1859   0.0587
  sHB    c   1       0.2234   0.1373
  sHB    o   1       0.2014   0.2146
  sHB    n   1       0.2160   0.1931
  sHB   h1   1       0.1770   0.0587
  sHB   ca   1       0.2234   0.1373
  sHB   ha   1       0.1834   0.0574
  sHB   n3   1       0.2160   0.1931
  sHB   hx   1       0.1515   0.0587
  sHB   n4   1       0.2160   0.1931
  sHB   hn   1       0.1069   0.0587
  sHC   Br   1       0.1325   0.0000
  sHC    C   1       0.3025   0.1373
  sHC   C6   1       0.3025   0.1373
  sHC   C5   1       0.3025   0.1373
  sHC   CA   1       0.3025   0.1373
  sHC   CB   1       0.3025   0.1373
  sHC   CC   1       0.3025   0.1373
  sHC   CK   1       0.3025   0.1373
  sHC   CM   1       0.3025   0.1373
  sHC   CN   1       0.3025   0.1373
  sHC   CQ   1       0.3025   0.1373
  sHC   CR   1       0.3025   0.1373
  sHC   CT   1       0.3025   0.1549
  sHC   C1   1       0.3025   0.1549
  sHC   C3   1       0.3025   0.1549
  sHC   C4   1       0.3025   0.1549
  sHC   C7   1       0.3025   0.1549
  sHC   C8   1       0.3025   0.1549
  sHC   C9   1       0.3025   0.1549
  sHC   CV   1       0.3025   0.1373
  sHC   CW   1       0.3025   0.1373
  sHC   C*   1       0.3025   0.1373
  sHC   C0   1       0.2851   0.3175
  sHC    F   1       0.2884   0.1157
  sHC    H   1       0.1859   0.0587
  sHC   HB   1       0.1859   0.0587
  sHC   HC   1       0.2650   0.0587
  sHC   H1   1       0.2560   0.0587
  sHC   H2   1       0.2471   0.0587
  sHC   H3   1       0.2382   0.0587
  sHC   HA   1       0.2625   0.0574
  sHC   H4   1       0.2580   0.0574
  sHC   H5   1       0.2535   0.0574
  sHC   HO   1       0.1325   0.0000
  sHC   HS   1       0.1859   0.0587
  sHC   HW   1       0.1325   0.0000
  sHC   HP   1       0.2305   0.0587
  sHC    I   1       0.3418   0.2962
  sHC   Cl   1       0.3525   0.1481
  sHC   Na   1       0.2989   0.0246
  sHC   IB   1       0.5779   0.1481
  sHC   MG   1       0.2031   0.4430
  sHC    N   1       0.2950   0.1931
  sHC   NA   1       0.2950   0.1931
  sHC   NB   1       0.2950   0.1931
  sHC   NC   1       0.2950   0.1931
  sHC   N2   1       0.2950   0.1931
  sHC   N3   1       0.2950   0.1931
  sHC   N*   1       0.2950   0.1931
  sHC    O   1       0.2805   0.2146
  sHC   OB   1       0.2805   0.2146
  sHC   OW   1       0.2900   0.1826
  sHC   OH   1       0.2858   0.2148
  sHC   O3   1       0.2858   0.2148
  sHC   OS   1       0.2825   0.1931
  sHC   O2   1       0.2805   0.2146
  sHC    P   1       0.3196   0.2094
  sHC    S   1       0.3107   0.2342
  sHC   SH   1       0.3107   0.2342
  sHC   CU   1       0.3025   0.1373
  sHC   FE   1       0.1325   0.0000
  sHC    K   1       0.3693   0.0085
  sHC   Rb   1       0.3958   0.0061
  sHC   Li   1       0.2338   0.0634
  sHC   Zn   1       0.2305   0.0524
  sHC HW_tip4pew   1       0.1325   0.0000
  sHC OW_tip4pew   1       0.2907   0.1889
  sHC HW_tip4p   1       0.1325   0.0000
  sHC OW_tip4p   1       0.2902   0.1844
  sHC HW_tip5p   1       0.1325   0.0000
  sHC OW_tip5p   1       0.2885   0.1873
  sHC HW_tip4pd   1       0.1325   0.0000
  sHC OW_tip4pd   1       0.2907   0.2288
  sHC   MW   1       0.1325   0.0000
  sHC MCH3   1       0.1325   0.0000
  sHC MNH3   1       0.1325   0.0000
  sHC   c3   1       0.3025   0.1549
  sHC   hc   1       0.2650   0.0587
  sHC    c   1       0.3025   0.1373
  sHC    o   1       0.2805   0.2146
  sHC    n   1       0.2950   0.1931
  sHC   h1   1       0.2560   0.0587
  sHC   ca   1       0.3025   0.1373
  sHC   ha   1       0.2625   0.0574
  sHC   n3   1       0.2950   0.1931
  sHC   hx   1       0.2305   0.0587
  sHC   n4   1       0.2950   0.1931
  sHC   hn   1       0.1859   0.0587
  sH1   Br   1       0.1236   0.0000
  sH1    C   1       0.2936   0.1373
  sH1   C6   1       0.2936   0.1373
  sH1   C5   1       0.2936   0.1373
  sH1   CA   1       0.2936   0.1373
  sH1   CB   1       0.2936   0.1373
  sH1   CC   1       0.2936   0.1373
  sH1   CK   1       0.2936   0.1373
  sH1   CM   1       0.2936   0.1373
  sH1   CN   1       0.2936   0.1373
  sH1   CQ   1       0.2936   0.1373
  sH1   CR   1       0.2936   0.1373
  sH1   CT   1       0.2936   0.1549
  sH1   C1   1       0.2936   0.1549
  sH1   C3   1       0.2936   0.1549
  sH1   C4   1       0.2936   0.1549
  sH1   C7   1       0.2936   0.1549
  sH1   C8   1       0.2936   0.1549
  sH1   C9   1       0.2936   0.1549
  sH1   CV   1       0.2936   0.1373
  sH1   CW   1       0.2936   0.1373
  sH1   C*   1       0.2936   0.1373
  sH1   C0   1       0.2762   0.3175
  sH1    F   1       0.2795   0.1157
  sH1    H   1       0.1770   0.0587
  sH1   HB   1       0.1770   0.0587
  sH1   HC   1       0.2560   0.0587
  sH1   H1   1       0.2471   0.0587
  sH1   H2   1       0.2382   0.0587
  sH1   H3   1       0.2293   0.0587
  sH1   HA   1       0.2535   0.0574
  sH1   H4   1       0.2491   0.0574
  sH1   H5   1       0.2446   0.0574
  sH1   HO   1       0.1236   0.0000
  sH1   HS   1       0.1770   0.0587
  sH1   HW   1       0.1236   0.0000
  sH1   HP   1       0.2216   0.0587
  sH1    I   1       0.3329   0.2962
  sH1   Cl   1       0.3436   0.1481
  sH1   Na   1       0.2900   0.0246
  sH1   IB   1       0.5690   0.1481
  sH1   MG   1       0.1942   0.4430
  sH1    N   1       0.2861   0.1931
  sH1   NA   1       0.2861   0.1931
  sH1   NB   1       0.2861   0.1931
  sH1   NC   1       0.2861   0.1931
  sH1   N2   1       0.2861   0.1931
  sH1   N3   1       0.2861   0.1931
  sH1   N*   1       0.2861   0.1931
  sH1    O   1       0.2716   0.2146
  sH1   OB   1       0.2716   0.2146
  sH1   OW   1       0.2811   0.1826
  sH1   OH   1       0.2769   0.2148
  sH1   O3   1       0.2769   0.2148
  sH1   OS   1       0.2736   0.1931
  sH1   O2   1       0.2716   0.2146
  sH1    P   1       0.3107   0.2094
  sH1    S   1       0.3017   0.2342
  sH1   SH   1       0.3017   0.2342
  sH1   CU   1       0.2936   0.1373
  sH1   FE   1       0.1236   0.0000
  sH1    K   1       0.3604   0.0085
  sH1   Rb   1       0.3869   0.0061
  sH1   Li   1       0.2249   0.0634
  sH1   Zn   1       0.2216   0.0524
  sH1 HW_tip4pew   1       0.1236   0.0000
  sH1 OW_tip4pew   1       0.2818   0.1889
  sH1 HW_tip4p   1       0.1236   0.0000
  sH1 OW_tip4p   1       0.2812   0.1844
  sH1 HW_tip5p   1       0.1236   0.0000
  sH1 OW_tip5p   1       0.2796   0.1873
  sH1 HW_tip4pd   1       0.1236   0.0000
  sH1 OW_tip4pd   1       0.2818   0.2288
  sH1   MW   1       0.1236   0.0000
  sH1 MCH3   1       0.1236   0.0000
  sH1 MNH3   1       0.1236   0.0000
  sH1   c3   1       0.2936   0.1549
  sH1   hc   1       0.2560   0.0587
  sH1    c   1       0.2936   0.1373
  sH1    o   1       0.2716   0.2146
  sH1    n   1       0.2861   0.1931
  sH1   h1   1       0.2471   0.0587
  sH1   ca   1       0.2936   0.1373
  sH1   ha   1       0.2535   0.0574
  sH1   n3   1       0.2861   0.1931
  sH1   hx   1       0.2216   0.0587
  sH1   n4   1       0.2861   0.1931
  sH1   hn   1       0.1770   0.0587
  sH2   Br   1       0.1147   0.0000
  sH2    C   1       0.2846   0.1373
  sH2   C6   1       0.2846   0.1373
  sH2   C5   1       0.2846   0.1373
  sH2   CA   1       0.2846   0.1373
  sH2   CB   1       0.2846   0.1373
  sH2   CC   1       0.2846   0.1373
  sH2   CK   1       0.2846   0.1373
  sH2   CM   1       0.2846   0.1373
  sH2   CN   1       0.2846   0.1373
  sH2   CQ   1       0.2846   0.1373
  sH2   CR   1       0.2846   0.1373
  sH2   CT   1       0.2846   0.1549
  sH2   C1   1       0.2846   0.1549
  sH2   C3   1       0.2846   0.1549
  sH2   C4   1       0.2846   0.1549
  sH2   C7   1       0.2846   0.1549
  sH2   C8   1       0.2846   0.1549
  sH2   C9   1       0.2846   0.1549
  sH2   CV   1       0.2846   0.1373
  sH2   CW   1       0.2846   0.1373
  sH2   C*   1       0.2846   0.1373
  sH2   C0   1       0.2673   0.3175
  sH2    F   1       0.2706   0.1157
  sH2    H   1       0.1681   0.0587
  sH2   HB   1       0.1681   0.0587
  sH2   HC   1       0.2471   0.0587
  sH2   H1   1       0.2382   0.0587
  sH2   H2   1       0.2293   0.0587
  sH2   H3   1       0.2204   0.0587
  sH2   HA   1       0.2446   0.0574
  sH2   H4   1       0.2402   0.0574
  sH2   H5   1       0.2357   0.0574
  sH2   HO   1       0.1147   0.0000
  sH2   HS   1       0.1681   0.0587
  sH2   HW   1       0.1147   0.0000
  sH2   HP   1       0.2127   0.0587
  sH2    I   1       0.3240   0.2962
  sH2   Cl   1       0.3347   0.1481
  sH2   Na   1       0.2811   0.0246
  sH2   IB   1       0.5601   0.1481
  sH2   MG   1       0.1853   0.4430
  sH2    N   1       0.2772   0.1931
  sH2   NA   1       0.2772   0.1931
  sH2   NB   1       0.2772   0.1931
  sH2   NC   1       0.2772   0.1931
  sH2   N2   1       0.2772   0.1931
  sH2   N3   1       0.2772   0.1931
  sH2   N*   1       0.2772   0.1931
  sH2    O   1       0.2627   0.2146
  sH2   OB   1       0.2627   0.2146
  sH2   OW   1       0.2722   0.1826
  sH2   OH   1       0.2680   0.2148
  sH2   O3   1       0.2680   0.2148
  sH2   OS   1       0.2647   0.1931
  sH2   O2   1       0.2627   0.2146
  sH2    P   1       0.3017   0.2094
  sH2    S   1       0.2928   0.2342
  sH2   SH   1       0.2928   0.2342
  sH2   CU   1       0.2846   0.1373
  sH2   FE   1       0.1147   0.0000
  sH2    K   1       0.3515   0.0085
  sH2   Rb   1       0.3780   0.0061
  sH2   Li   1       0.2160   0.0634
  sH2   Zn   1       0.2127   0.0524
  sH2 HW_tip4pew   1       0.1147   0.0000
  sH2 OW_tip4pew   1       0.2729   0.1889
  sH2 HW_tip4p   1       0.1147   0.0000
  sH2 OW_tip4p   1       0.2723   0.1844
  sH2 HW_tip5p   1       0.1147   0.0000
  sH2 OW_tip5p   1       0.2707   0.1873
  sH2 HW_tip4pd   1       0.1147   0.0000
  sH2 OW_tip4pd   1       0.2729   0.2288
  sH2   MW   1       0.1147   0.0000
  sH2 MCH3   1       0.1147   0.0000
  sH2 MNH3   1       0.1147   0.0000
  sH2   c3   1       0.2846   0.1549
  sH2   hc   1       0.2471   0.0587
  sH2    c   1       0.2846   0.1373
  sH2    o   1       0.2627   0.2146
  sH2    n   1       0.2772   0.1931
  sH2   h1   1       0.2382   0.0587
  sH2   ca   1       0.2846   0.1373
  sH2   ha   1       0.2446   0.0574
  sH2   n3   1       0.2772   0.1931
  sH2   hx   1       0.2127   0.0587
  sH2   n4   1       0.2772   0.1931
  sH2   hn   1       0.1681   0.0587
  sH3   Br   1       0.1057   0.0000
  sH3    C   1       0.2757   0.1373
  sH3   C6   1       0.2757   0.1373
  sH3   C5   1       0.2757   0.1373
  sH3   CA   1       0.2757   0.1373
  sH3   CB   1       0.2757   0.1373
  sH3   CC   1       0.2757   0.1373
  sH3   CK   1       0.2757   0.1373
  sH3   CM   1       0.2757   0.1373
  sH3   CN   1       0.2757   0.1373
  sH3   CQ   1       0.2757   0.1373
  sH3   CR   1       0.2757   0.1373
  sH3   CT   1       0.2757   0.1549
  sH3   C1   1       0.2757   0.1549
  sH3   C3   1       0.2757   0.1549
  sH3   C4   1       0.2757   0.1549
  sH3   C7   1       0.2757   0.1549
  sH3   C8   1       0.2757   0.1549
  sH3   C9   1       0.2757   0.1549
  sH3   CV   1       0.2757   0.1373
  sH3   CW   1       0.2757   0.1373
  sH3   C*   1       0.2757   0.1373
  sH3   C0   1       0.2584   0.3175
  sH3    F   1       0.2617   0.1157
  sH3    H   1       0.1592   0.0587
  sH3   HB   1       0.1592   0.0587
  sH3   HC   1       0.2382   0.0587
  sH3   H1   1       0.2293   0.0587
  sH3   H2   1       0.2204   0.0587
  sH3   H3   1       0.2115   0.0587
  sH3   HA   1       0.2357   0.0574
  sH3   H4   1       0.2313   0.0574
  sH3   H5   1       0.2268   0.0574
  sH3   HO   1       0.1057   0.0000
  sH3   HS   1       0.1592   0.0587
  sH3   HW   1       0.1057   0.0000
  sH3   HP   1       0.2037   0.0587
  sH3    I   1       0.3151   0.2962
  sH3   Cl   1       0.3258   0.1481
  sH3   Na   1       0.2722   0.0246
  sH3   IB   1       0.5512   0.1481
  sH3   MG   1       0.1764   0.4430
  sH3    N   1       0.2682   0.1931
  sH3   NA   1       0.2682   0.1931
  sH3   NB   1       0.2682   0.1931
  sH3   NC   1       0.2682   0.1931
  sH3   N2   1       0.2682   0.1931
  sH3   N3   1       0.2682   0.1931
  sH3   N*   1       0.2682   0.1931
  sH3    O   1       0.2537   0.2146
  sH3   OB   1       0.2537   0.2146
  sH3   OW   1       0.2633   0.1826
  sH3   OH   1       0.2591   0.2148
  sH3   O3   1       0.2591   0.2148
  sH3   OS   1       0.2558   0.1931
  sH3   O2   1       0.2537   0.2146
  sH3    P   1       0.2928   0.2094
  sH3    S   1       0.2839   0.2342
  sH3   SH   1       0.2839   0.2342
  sH3   CU   1       0.2757   0.1373
  sH3   FE   1       0.1057   0.0000
  sH3    K   1       0.3426   0.0085
  sH3   Rb   1       0.3691   0.0061
  sH3   Li   1       0.2070   0.0634
  sH3   Zn   1       0.2037   0.0524
  sH3 HW_tip4pew   1       0.1057   0.0000
  sH3 OW_tip4pew   1       0.2640   0.1889
  sH3 HW_tip4p   1       0.1057   0.0000
  sH3 OW_tip4p   1       0.2634   0.1844
  sH3 HW_tip5p   1       0.1057   0.0000
  sH3 OW_tip5p   1       0.2617   0.1873
  sH3 HW_tip4pd   1       0.1057   0.0000
  sH3 OW_tip4pd   1       0.2640   0.2288
  sH3   MW   1       0.1057   0.0000
  sH3 MCH3   1       0.1057   0.0000
  sH3 MNH3   1       0.1057   0.0000
  sH3   c3   1       0.2757   0.1549
  sH3   hc   1       0.2382   0.0587
  sH3    c   1       0.2757   0.1373
  sH3    o   1       0.2537   0.2146
  sH3    n   1       0.2682   0.1931
  sH3   h1   1       0.2293   0.0587
  sH3   ca   1       0.2757   0.1373
  sH3   ha   1       0.2357   0.0574
  sH3   n3   1       0.2682   0.1931
  sH3   hx   1       0.2037   0.0587
  sH3   n4   1       0.2682   0.1931
  sH3   hn   1       0.1592   0.0587
  sHA   Br   1       0.1300   0.0000
  sHA    C   1       0.3000   0.1342
  sHA   C6   1       0.3000   0.1342
  sHA   C5   1       0.3000   0.1342
  sHA   CA   1       0.3000   0.1342
  sHA   CB   1       0.3000   0.1342
  sHA   CC   1       0.3000   0.1342
  sHA   CK   1       0.3000   0.1342
  sHA   CM   1       0.3000   0.1342
  sHA   CN   1       0.3000   0.1342
  sHA   CQ   1       0.3000   0.1342
  sHA   CR   1       0.3000   0.1342
  sHA   CT   1       0.3000   0.1514
  sHA   C1   1       0.3000   0.1514
  sHA   C3   1       0.3000   0.1514
  sHA   C4   1       0.3000   0.1514
  sHA   C7   1       0.3000   0.1514
  sHA   C8   1       0.3000   0.1514
  sHA   C9   1       0.3000   0.1514
  sHA   CV   1       0.3000   0.1342
  sHA   CW   1       0.3000   0.1342
  sHA   C*   1       0.3000   0.1342
  sHA   C0   1       0.2826   0.3104
  sHA    F   1       0.2859   0.1131
  sHA    H   1       0.1834   0.0574
  sHA   HB   1       0.1834   0.0574
  sHA   HC   1       0.2625   0.0574
  sHA   H1   1       0.2535   0.0574
  sHA   H2   1       0.2446   0.0574
  sHA   H3   1       0.2357   0.0574
  sHA   HA   1       0.2600   0.0561
  sHA   H4   1       0.2555   0.0561
  sHA   H5   1       0.2511   0.0561
  sHA   HO   1       0.1300   0.0000
  sHA   HS   1       0.1834   0.0574
  sHA   HW   1       0.1300   0.0000
  sHA   HP   1       0.2280   0.0574
  sHA    I   1       0.3393   0.2895
  sHA   Cl   1       0.3500   0.1448
  sHA   Na   1       0.2964   0.0241
  sHA   IB   1       0.5754   0.1448
  sHA   MG   1       0.2006   0.4330
  sHA    N   1       0.2925   0.1887
  sHA   NA   1       0.2925   0.1887
  sHA   NB   1       0.2925   0.1887
  sHA   NC   1       0.2925   0.1887
  sHA   N2   1       0.2925   0.1887
  sHA   N3   1       0.2925   0.1887
  sHA   N*   1       0.2925   0.1887
  sHA    O   1       0.2780   0.2098
  sHA   OB   1       0.2780   0.2098
  sHA   OW   1       0.2875   0.1785
  sHA   OH   1       0.2833   0.2100
  sHA   O3   1       0.2833   0.2100
  sHA   OS   1       0.2800   0.1887
  sHA   O2   1       0.2780   0.2098
  sHA    P   1       0.3171   0.2047
  sHA    S   1       0.3082   0.2289
  sHA   SH   1       0.3082   0.2289
  sHA   CU   1       0.3000   0.1342
  sHA   FE   1       0.1300   0.0000
  sHA    K   1       0.3668   0.0083
  sHA   Rb   1       0.3933   0.0060
  sHA   Li   1       0.2313   0.0619
  sHA   Zn   1       0.2280   0.0512
  sHA HW_tip4pew   1       0.1300   0.0000
  sHA OW_tip4pew   1       0.2882   0.1847
  sHA HW_tip4p   1       0.1300   0.0000
  sHA OW_tip4p   1       0.2877   0.1802
  sHA HW_tip5p   1       0.1300   0.0000
  sHA OW_tip5p   1       0.2860   0.1831
  sHA HW_tip4pd   1       0.1300   0.0000
  sHA OW_tip4pd   1       0.2882   0.2237
  sHA   MW   1       0.1300   0.0000
  sHA MCH3   1       0.1300   0.0000
  sHA MNH3   1       0.1300   0.0000
  sHA   c3   1       0.3000   0.1514
  sHA   hc   1       0.2625   0.0574
  sHA    c   1       0.3000   0.1342
  sHA    o   1       0.2780   0.2098
  sHA    n   1       0.2925   0.1887
  sHA   h1   1       0.2535   0.0574
  sHA   ca   1       0.3000   0.1342
  sHA   ha   1       0.2600   0.0561
  sHA   n3   1       0.2925   0.1887
  sHA   hx   1       0.2280   0.0574
  sHA   n4   1       0.2925   0.1887
  sHA   hn   1       0.1834   0.0574
  sH4   Br   1       0.1255   0.0000
  sH4    C   1       0.2955   0.1342
  sH4   C6   1       0.2955   0.1342
  sH4   C5   1       0.2955   0.1342
  sH4   CA   1       0.2955   0.1342
  sH4   CB   1       0.2955   0.1342
  sH4   CC   1       0.2955   0.1342
  sH4   CK   1       0.2955   0.1342
  sH4   CM   1       0.2955   0.1342
  sH4   CN   1       0.2955   0.1342
  sH4   CQ   1       0.2955   0.1342
  sH4   CR   1       0.2955   0.1342
  sH4   CT   1       0.2955   0.1514
  sH4   C1   1       0.2955   0.1514
  sH4   C3   1       0.2955   0.1514
  sH4   C4   1       0.2955   0.1514
  sH4   C7   1       0.2955   0.1514
  sH4   C8   1       0.2955   0.1514
  sH4   C9   1       0.2955   0.1514
  sH4   CV   1       0.2955   0.1342
  sH4   CW   1       0.2955   0.1342
  sH4   C*   1       0.2955   0.1342
  sH4   C0   1       0.2781   0.3104
  sH4    F   1       0.2814   0.1131
  sH4    H   1       0.1790   0.0574
  sH4   HB   1       0.1790   0.0574
  sH4   HC   1       0.2580   0.0574
  sH4   H1   1       0.2491   0.0574
  sH4   H2   1       0.2402   0.0574
  sH4   H3   1       0.2313   0.0574
  sH4   HA   1       0.2555   0.0561
  sH4   H4   1       0.2511   0.0561
  sH4   H5   1       0.2466   0.0561
  sH4   HO   1       0.1255   0.0000
  sH4   HS   1       0.1790   0.0574
  sH4   HW   1       0.1255   0.0000
  sH4   HP   1       0.2235   0.0574
  sH4    I   1       0.3349   0.2895
  sH4   Cl   1       0.3456   0.1448
  sH4   Na   1       0.2919   0.0241
  sH4   IB   1       0.5710   0.1448
  sH4   MG   1       0.1961   0.4330
  sH4    N   1       0.2880   0.1887
  sH4   NA   1       0.2880   0.1887
  sH4   NB   1       0.2880   0.1887
  sH4   NC   1       0.2880   0.1887
  sH4   N2   1       0.2880   0.1887
  sH4   N3   1       0.2880   0.1887
  sH4   N*   1       0.2880   0.1887
  sH4    O   1       0.2735   0.2098
  sH4   OB   1       0.2735   0.2098
  sH4   OW   1       0.2831   0.1785
  sH4   OH   1       0.2789   0.2100
  sH4   O3   1       0.2789   0.2100
  sH4   OS   1       0.2755   0.1887
  sH4   O2   1       0.2735   0.2098
  sH4    P   1       0.3126   0.2047
  sH4    S   1       0.3037   0.2289
  sH4   SH   1       0.3037   0.2289
  sH4   CU   1       0.2955   0.1342
  sH4   FE   1       0.1255   0.0000
  sH4    K   1       0.3623   0.0083
  sH4   Rb   1       0.3889   0.0060
  sH4   Li   1       0.2268   0.0619
  sH4   Zn   1       0.2235   0.0512
  sH4 HW_tip4pew   1       0.1255   0.0000
  sH4 OW_tip4pew   1       0.2837   0.1847
  sH4 HW_tip4p   1       0.1255   0.0000
  sH4 OW_tip4p   1       0.2832   0.1802
  sH4 HW_tip5p   1       0.1255   0.0000
  sH4 OW_tip5p   1       0.2815   0.1831
  sH4 HW_tip4pd   1       0.1255   0.0000
  sH4 OW_tip4pd   1       0.2838   0.2237
  sH4   MW   1       0.1255   0.0000
  sH4 MCH3   1       0.1255   0.0000
  sH4 MNH3   1       0.1255   0.0000
  sH4   c3   1       0.2955   0.1514
  sH4   hc   1       0.2580   0.0574
  sH4    c   1       0.2955   0.1342
  sH4    o   1       0.2735   0.2098
  sH4    n   1       0.2880   0.1887
  sH4   h1   1       0.2491   0.0574
  sH4   ca   1       0.2955   0.1342
  sH4   ha   1       0.2555   0.0561
  sH4   n3   1       0.2880   0.1887
  sH4   hx   1       0.2235   0.0574
  sH4   n4   1       0.2880   0.1887
  sH4   hn   1       0.1790   0.0574
  sH5   Br   1       0.1211   0.0000
  sH5    C   1       0.2911   0.1342
  sH5   C6   1       0.2911   0.1342
  sH5   C5   1       0.2911   0.1342
  sH5   CA   1       0.2911   0.1342
  sH5   CB   1       0.2911   0.1342
  sH5   CC   1       0.2911   0.1342
  sH5   CK   1       0.2911   0.1342
  sH5   CM   1       0.2911   0.1342
  sH5   CN   1       0.2911   0.1342
  sH5   CQ   1       0.2911   0.1342
  sH5   CR   1       0.2911   0.1342
  sH5   CT   1       0.2911   0.1514
  sH5   C1   1       0.2911   0.1514
  sH5   C3   1       0.2911   0.1514
  sH5   C4   1       0.2911   0.1514
  sH5   C7   1       0.2911   0.1514
  sH5   C8   1       0.2911   0.1514
  sH5   C9   1       0.2911   0.1514
  sH5   CV   1       0.2911   0.1342
  sH5   CW   1       0.2911   0.1342
  sH5   C*   1       0.2911   0.1342
  sH5   C0   1       0.2737   0.3104
  sH5    F   1       0.2770   0.1131
  sH5    H   1       0.1745   0.0574
  sH5   HB   1       0.1745   0.0574
  sH5   HC   1       0.2535   0.0574
  sH5   H1   1       0.2446   0.0574
  sH5   H2   1       0.2357   0.0574
  sH5   H3   1       0.2268   0.0574
  sH5   HA   1       0.2511   0.0561
  sH5   H4   1       0.2466   0.0561
  sH5   H5   1       0.2421   0.0561
  sH5   HO   1       0.1211   0.0000
  sH5   HS   1       0.1745   0.0574
  sH5   HW   1       0.1211   0.0000
  sH5   HP   1       0.2191   0.0574
  sH5    I   1       0.3304   0.2895
  sH5   Cl   1       0.3411   0.1448
  sH5   Na   1       0.2875   0.0241
  sH5   IB   1       0.5665   0.1448
  sH5   MG   1       0.1917   0.4330
  sH5    N   1       0.2836   0.1887
  sH5   NA   1       0.2836   0.1887
  sH5   NB   1       0.2836   0.1887
  sH5   NC   1       0.2836   0.1887
  sH5   N2   1       0.2836   0.1887
  sH5   N3   1       0.2836   0.1887
  sH5   N*   1       0.2836   0.1887
  sH5    O   1       0.2691   0.2098
  sH5   OB   1       0.2691   0.2098
  sH5   OW   1       0.2786   0.1785
  sH5   OH   1       0.2744   0.2100
  sH5   O3   1       0.2744   0.2100
  sH5   OS   1       0.2711   0.1887
  sH5   O2   1       0.2691   0.2098
  sH5    P   1       0.3082   0.2047
  sH5    S   1       0.2993   0.2289
  sH5   SH   1       0.2993   0.2289
  sH5   CU   1       0.2911   0.1342
  sH5   FE   1       0.1211   0.0000
  sH5    K   1       0.3579   0.0083
  sH5   Rb   1       0.3844   0.0060
  sH5   Li   1       0.2224   0.0619
  sH5   Zn   1       0.2191   0.0512
  sH5 HW_tip4pew   1       0.1211   0.0000
  sH5 OW_tip4pew   1       0.2793   0.1847
  sH5 HW_tip4p   1       0.1211   0.0000
  sH5 OW_tip4p   1       0.2788   0.1802
  sH5 HW_tip5p   1       0.1211   0.0000
  sH5 OW_tip5p   1       0.2771   0.1831
  sH5 HW_tip4pd   1       0.1211   0.0000
  sH5 OW_tip4pd   1       0.2793   0.2237
  sH5   MW   1       0.1211   0.0000
  sH5 MCH3   1       0.1211   0.0000
  sH5 MNH3   1       0.1211   0.0000
  sH5   c3   1       0.2911   0.1514
  sH5   hc   1       0.2535   0.0574
  sH5    c   1       0.2911   0.1342
  sH5    o   1       0.2691   0.2098
  sH5    n   1       0.2836   0.1887
  sH5   h1   1       0.2446   0.0574
  sH5   ca   1       0.2911   0.1342
  sH5   ha   1       0.2511   0.0561
  sH5   n3   1       0.2836   0.1887
  sH5   hx   1       0.2191   0.0574
  sH5   n4   1       0.2836   0.1887
  sH5   hn   1       0.1745   0.0574
  sHO   Br   1       0.0000   0.0000
  sHO    C   1       0.1700   0.0000
  sHO   C6   1       0.1700   0.0000
  sHO   C5   1       0.1700   0.0000
  sHO   CA   1       0.1700   0.0000
  sHO   CB   1       0.1700   0.0000
  sHO   CC   1       0.1700   0.0000
  sHO   CK   1       0.1700   0.0000
  sHO   CM   1       0.1700   0.0000
  sHO   CN   1       0.1700   0.0000
  sHO   CQ   1       0.1700   0.0000
  sHO   CR   1       0.1700   0.0000
  sHO   CT   1       0.1700   0.0000
  sHO   C1   1       0.1700   0.0000
  sHO   C3   1       0.1700   0.0000
  sHO   C4   1       0.1700   0.0000
  sHO   C7   1       0.1700   0.0000
  sHO   C8   1       0.1700   0.0000
  sHO   C9   1       0.1700   0.0000
  sHO   CV   1       0.1700   0.0000
  sHO   CW   1       0.1700   0.0000
  sHO   C*   1       0.1700   0.0000
  sHO   C0   1       0.1526   0.0000
  sHO    F   1       0.1559   0.0000
  sHO    H   1       0.0535   0.0000
  sHO   HB   1       0.0535   0.0000
  sHO   HC   1       0.1325   0.0000
  sHO   H1   1       0.1236   0.0000
  sHO   H2   1       0.1147   0.0000
  sHO   H3   1       0.1057   0.0000
  sHO   HA   1       0.1300   0.0000
  sHO   H4   1       0.1255   0.0000
  sHO   H5   1       0.1211   0.0000
  sHO   HO   1       0.0000   0.0000
  sHO   HS   1       0.0535   0.0000
  sHO   HW   1       0.0000   0.0000
  sHO   HP   1       0.0980   0.0000
  sHO    I   1       0.2094   0.0000
  sHO   Cl   1       0.2201   0.0000
  sHO   Na   1       0.1664   0.0000
  sHO   IB   1       0.4454   0.0000
  sHO   MG   1       0.0706   0.0000
  sHO    N   1       0.1625   0.0000
  sHO   NA   1       0.1625   0.0000
  sHO   NB   1       0.1625   0.0000
  sHO   NC   1       0.1625   0.0000
  sHO   N2   1       0.1625   0.0000
  sHO   N3   1       0.1625   0.0000
  sHO   N*   1       0.1625   0.0000
  sHO    O   1       0.1480   0.0000
  sHO   OB   1       0.1480   0.0000
  sHO   OW   1       0.1575   0.0000
  sHO   OH   1       0.1533   0.0000
  sHO   O3   1       0.1533   0.0000
  sHO   OS   1       0.1500   0.0000
  sHO   O2   1       0.1480   0.0000
  sHO    P   1       0.1871   0.0000
  sHO    S   1       0.1782   0.0000
  sHO   SH   1       0.1782   0.0000
  sHO   CU   1       0.1700   0.0000
  sHO   FE   1       0.0000   0.0000
  sHO    K   1       0.2368   0.0000
  sHO   Rb   1       0.2633   0.0000
  sHO   Li   1       0.1013   0.0000
  sHO   Zn   1       0.0980   0.0000
  sHO HW_tip4pew   1       0.0000   0.0000
  sHO OW_tip4pew   1       0.1582   0.0000
  sHO HW_tip4p   1       0.0000   0.0000
  sHO OW_tip4p   1       0.1577   0.0000
  sHO HW_tip5p   1       0.0000   0.0000
  sHO OW_tip5p   1       0.1560   0.0000
  sHO HW_tip4pd   1       0.0000   0.0000
  sHO OW_tip4pd   1       0.1583   0.0000
  sHO   MW   1       0.0000   0.0000
  sHO MCH3   1       0.0000   0.0000
  sHO MNH3   1       0.0000   0.0000
  sHO   c3   1       0.1700   0.0000
  sHO   hc   1       0.1325   0.0000
  sHO    c   1       0.1700   0.0000
  sHO    o   1       0.1480   0.0000
  sHO    n   1       0.1625   0.0000
  sHO   h1   1       0.1236   0.0000
  sHO   ca   1       0.1700   0.0000
  sHO   ha   1       0.1300   0.0000
  sHO   n3   1       0.1625   0.0000
  sHO   hx   1       0.0980   0.0000
  sHO   n4   1       0.1625   0.0000
  sHO   hn   1       0.0535   0.0000
  sHS   Br   1       0.0535   0.0000
  sHS    C   1       0.2234   0.1373
  sHS   C6   1       0.2234   0.1373
  sHS   C5   1       0.2234   0.1373
  sHS   CA   1       0.2234   0.1373
  sHS   CB   1       0.2234   0.1373
  sHS   CC   1       0.2234   0.1373
  sHS   CK   1       0.2234   0.1373
  sHS   CM   1       0.2234   0.1373
  sHS   CN   1       0.2234   0.1373
  sHS   CQ   1       0.2234   0.1373
  sHS   CR   1       0.2234   0.1373
  sHS   CT   1       0.2234   0.1549
  sHS   C1   1       0.2234   0.1549
  sHS   C3   1       0.2234   0.1549
  sHS   C4   1       0.2234   0.1549
  sHS   C7   1       0.2234   0.1549
  sHS   C8   1       0.2234   0.1549
  sHS   C9   1       0.2234   0.1549
  sHS   CV   1       0.2234   0.1373
  sHS   CW   1       0.2234   0.1373
  sHS   C*   1       0.2234   0.1373
  sHS   C0   1       0.2061   0.3175
  sHS    F   1       0.2094   0.1157
  sHS    H   1       0.1069   0.0587
  sHS   HB   1       0.1069   0.0587
  sHS   HC   1       0.1859   0.0587
  sHS   H1   1       0.1770   0.0587
  sHS   H2   1       0.1681   0.0587
  sHS   H3   1       0.1592   0.0587
  sHS   HA   1       0.1834   0.0574
  sHS   H4   1       0.1790   0.0574
  sHS   H5   1       0.1745   0.0574
  sHS   HO   1       0.0535   0.0000
  sHS   HS   1       0.1069   0.0587
  sHS   HW   1       0.0535   0.0000
  sHS   HP   1       0.1515   0.0587
  sHS    I   1       0.2628   0.2962
  sHS   Cl   1       0.2735   0.1481
  sHS   Na   1       0.2199   0.0246
  sHS   IB   1       0.4989   0.1481
  sHS   MG   1       0.1241   0.4430
  sHS    N   1       0.2160   0.1931
  sHS   NA   1       0.2160   0.1931
  sHS   NB   1       0.2160   0.1931
  sHS   NC   1       0.2160   0.1931
  sHS   N2   1       0.2160   0.1931
  sHS   N3   1       0.2160   0.1931
  sHS   N*   1       0.2160   0.1931
  sHS    O   1       0.2014   0.2146
  sHS   OB   1       0.2014   0.2146
  sHS   OW   1       0.2110   0.1826
  sHS   OH   1       0.2068   0.2148
  sHS   O3   1       0.2068   0.2148
  sHS   OS   1       0.2035   0.1931
  sHS   O2   1       0.2014   0.2146
  sHS    P   1       0.2405   0.2094
  sHS    S   1       0.2316   0.2342
  sHS   SH   1       0.2316   0.2342
  sHS   CU   1       0.2234   0.1373
  sHS   FE   1       0.0535   0.0000
  sHS    K   1       0.2903   0.0085
  sHS   Rb   1       0.3168   0.0061
  sHS   Li   1       0.1547   0.0634
  sHS   Zn   1       0.1515   0.0524
  sHS HW_tip4pew   1       0.0535   0.0000
  sHS OW_tip4pew   1       0.2117   0.1889
  sHS HW_tip4p   1       0.0535   0.0000
  sHS OW_tip4p   1       0.2111   0.1844
  sHS HW_tip5p   1       0.0535   0.0000
  sHS OW_tip5p   1       0.2095   0.1873
  sHS HW_tip4pd   1       0.0535   0.0000
  sHS OW_tip4pd   1       0.2117   0.2288
  sHS   MW   1       0.0535   0.0000
  sHS MCH3   1       0.0535   0.0000
  sHS MNH3   1       0.0535   0.0000
  sHS   c3   1       0.2234   0.1549
  sHS   hc   1       0.1859   0.0587
  sHS    c   1       0.2234   0.1373
  sHS    o   1       0.2014   0.2146
  sHS    n   1       0.2160   0.1931
  sHS   h1   1       0.1770   0.0587
  sHS   ca   1       0.2234   0.1373
  sHS   ha   1       0.1834   0.0574
  sHS   n3   1       0.2160   0.1931
  sHS   hx   1       0.1515   0.0587
  sHS   n4   1       0.2160   0.1931
  sHS   hn   1       0.1069   0.0587
  sHW   Br   1       0.0000   0.0000
  sHW    C   1       0.1700   0.0000
  sHW   C6   1       0.1700   0.0000
  sHW   C5   1       0.1700   0.0000
  sHW   CA   1       0.1700   0.0000
  sHW   CB   1       0.1700   0.0000
  sHW   CC   1       0.1700   0.0000
  sHW   CK   1       0.1700   0.0000
  sHW   CM   1       0.1700   0.0000
  sHW   CN   1       0.1700   0.0000
  sHW   CQ   1       0.1700   0.0000
  sHW   CR   1       0.1700   0.0000
  sHW   CT   1       0.1700   0.0000
  sHW   C1   1       0.1700   0.0000
  sHW   C3   1       0.1700   0.0000
  sHW   C4   1       0.1700   0.0000
  sHW   C7   1       0.1700   0.0000
  sHW   C8   1       0.1700   0.0000
  sHW   C9   1       0.1700   0.0000
  sHW   CV   1       0.1700   0.0000
  sHW   CW   1       0.1700   0.0000
  sHW   C*   1       0.1700   0.0000
  sHW   C0   1       0.1526   0.0000
  sHW    F   1       0.1559   0.0000
  sHW    H   1       0.0535   0.0000
  sHW   HB   1       0.0535   0.0000
  sHW   HC   1       0.1325   0.0000
  sHW   H1   1       0.1236   0.0000
  sHW   H2   1       0.1147   0.0000
  sHW   H3   1       0.1057   0.0000
  sHW   HA   1       0.1300   0.0000
  sHW   H4   1       0.1255   0.0000
  sHW   H5   1       0.1211   0.0000
  sHW   HO   1       0.0000   0.0000
  sHW   HS   1       0.0535   0.0000
  sHW   HW   1       0.0000   0.0000
  sHW   HP   1       0.0980   0.0000
  sHW    I   1       0.2094   0.0000
  sHW   Cl   1       0.2201   0.0000
  sHW   Na   1       0.1664   0.0000
  sHW   IB   1       0.4454   0.0000
  sHW   MG   1       0.0706   0.0000
  sHW    N   1       0.1625   0.0000
  sHW   NA   1       0.1625   0.0000
  sHW   NB   1       0.1625   0.0000
  sHW   NC   1       0.1625   0.0000
  sHW   N2   1       0.1625   0.0000
  sHW   N3   1       0.1625   0.0000
  sHW   N*   1       0.1625   0.0000
  sHW    O   1       0.1480   0.0000
  sHW   OB   1       0.1480   0.0000
  sHW   OW   1       0.1575   0.0000
  sHW   OH   1       0.1533   0.0000
  sHW   O3   1       0.1533   0.0000
  sHW   OS   1       0.1500   0.0000
  sHW   O2   1       0.1480   0.0000
  sHW    P   1       0.1871   0.0000
  sHW    S   1       0.1782   0.0000
  sHW   SH   1       0.1782   0.0000
  sHW   CU   1       0.1700   0.0000
  sHW   FE   1       0.0000   0.0000
  sHW    K   1       0.2368   0.0000
  sHW   Rb   1       0.2633   0.0000
  sHW   Li   1       0.1013   0.0000
  sHW   Zn   1       0.0980   0.0000
  sHW HW_tip4pew   1       0.0000   0.0000
  sHW OW_tip4pew   1       0.1582   0.0000
  sHW HW_tip4p   1       0.0000   0.0000
  sHW OW_tip4p   1       0.1577   0.0000
  sHW HW_tip5p   1       0.0000   0.0000
  sHW OW_tip5p   1       0.1560   0.0000
  sHW HW_tip4pd   1       0.0000   0.0000
  sHW OW_tip4pd   1       0.1583   0.0000
  sHW   MW   1       0.0000   0.0000
  sHW MCH3   1       0.0000   0.0000
  sHW MNH3   1       0.0000   0.0000
  sHW   c3   1       0.1700   0.0000
  sHW   hc   1       0.1325   0.0000
  sHW    c   1       0.1700   0.0000
  sHW    o   1       0.1480   0.0000
  sHW    n   1       0.1625   0.0000
  sHW   h1   1       0.1236   0.0000
  sHW   ca   1       0.1700   0.0000
  sHW   ha   1       0.1300   0.0000
  sHW   n3   1       0.1625   0.0000
  sHW   hx   1       0.0980   0.0000
  sHW   n4   1       0.1625   0.0000
  sHW   hn   1       0.0535   0.0000
  sHP   Br   1       0.0980   0.0000
  sHP    C   1       0.2680   0.1373
  sHP   C6   1       0.2680   0.1373
  sHP   C5   1       0.2680   0.1373
  sHP   CA   1       0.2680   0.1373
  sHP   CB   1       0.2680   0.1373
  sHP   CC   1       0.2680   0.1373
  sHP   CK   1       0.2680   0.1373
  sHP   CM   1       0.2680   0.1373
  sHP   CN   1       0.2680   0.1373
  sHP   CQ   1       0.2680   0.1373
  sHP   CR   1       0.2680   0.1373
  sHP   CT   1       0.2680   0.1549
  sHP   C1   1       0.2680   0.1549
  sHP   C3   1       0.2680   0.1549
  sHP   C4   1       0.2680   0.1549
  sHP   C7   1       0.2680   0.1549
  sHP   C8   1       0.2680   0.1549
  sHP   C9   1       0.2680   0.1549
  sHP   CV   1       0.2680   0.1373
  sHP   CW   1       0.2680   0.1373
  sHP   C*   1       0.2680   0.1373
  sHP   C0   1       0.2506   0.3175
  sHP    F   1       0.2539   0.1157
  sHP    H   1       0.1515   0.0587
  sHP   HB   1       0.1515   0.0587
  sHP   HC   1       0.2305   0.0587
  sHP   H1   1       0.2216   0.0587
  sHP   H2   1       0.2127   0.0587
  sHP   H3   1       0.2037   0.0587
  sHP   HA   1       0.2280   0.0574
  sHP   H4   1       0.2235   0.0574
  sHP   H5   1       0.2191   0.0574
  sHP   HO   1       0.0980   0.0000
  sHP   HS   1       0.1515   0.0587
  sHP   HW   1       0.0980   0.0000
  sHP   HP   1       0.1960   0.0587
  sHP    I   1       0.3074   0.2962
  sHP   Cl   1       0.3181   0.1481
  sHP   Na   1       0.2644   0.0246
  sHP   IB   1       0.5434   0.1481
  sHP   MG   1       0.1686   0.4430
  sHP    N   1       0.2605   0.1931
  sHP   NA   1       0.2605   0.1931
  sHP   NB   1       0.2605   0.1931
  sHP   NC   1       0.2605   0.1931
  sHP   N2   1       0.2605   0.1931
  sHP   N3   1       0.2605   0.1931
  sHP   N*   1       0.2605   0.1931
  sHP    O   1       0.2460   0.2146
  sHP   OB   1       0.2460   0.2146
  sHP   OW   1       0.2555   0.1826
  sHP   OH   1       0.2513   0.2148
  sHP   O3   1       0.2513   0.2148
  sHP   OS   1       0.2480   0.1931
  sHP   O2   1       0.2460   0.2146
  sHP    P   1       0.2851   0.2094
  sHP    S   1       0.2762   0.2342
  sHP   SH   1       0.2762   0.2342
  sHP   CU   1       0.2680   0.1373
  sHP   FE   1       0.0980   0.0000
  sHP    K   1       0.3348   0.0085
  sHP   Rb   1       0.3613   0.0061
  sHP   Li   1       0.1993   0.0634
  sHP   Zn   1       0.1960   0.0524
  sHP HW_tip4pew   1       0.0980   0.0000
  sHP OW_tip4pew   1       0.2562   0.1889
  sHP HW_tip4p   1       0.0980   0.0000
  sHP OW_tip4p   1       0.2557   0.1844
  sHP HW_tip5p   1       0.0980   0.0000
  sHP OW_tip5p   1       0.2540   0.1873
  sHP HW_tip4pd   1       0.0980   0.0000
  sHP OW_tip4pd   1       0.2562   0.2288
  sHP   MW   1       0.0980   0.0000
  sHP MCH3   1       0.0980   0.0000
  sHP MNH3   1       0.0980   0.0000
  sHP   c3   1       0.2680   0.1549
  sHP   hc   1       0.2305   0.0587
  sHP    c   1       0.2680   0.1373
  sHP    o   1       0.2460   0.2146
  sHP    n   1       0.2605   0.1931
  sHP   h1   1       0.2216   0.0587
  sHP   ca   1       0.2680   0.1373
  sHP   ha   1       0.2280   0.0574
  sHP   n3   1       0.2605   0.1931
  sHP   hx   1       0.1960   0.0587
  sHP   n4   1       0.2605   0.1931
  sHP   hn   1       0.1515   0.0587
   sI   Br   1       0.2094   0.0000
   sI    C   1       0.3793   0.6932
   sI   C6   1       0.3793   0.6932
   sI   C5   1       0.3793   0.6932
   sI   CA   1       0.3793   0.6932
   sI   CB   1       0.3793   0.6932
   sI   CC   1       0.3793   0.6932
   sI   CK   1       0.3793   0.6932
   sI   CM   1       0.3793   0.6932
   sI   CN   1       0.3793   0.6932
   sI   CQ   1       0.3793   0.6932
   sI   CR   1       0.3793   0.6932
   sI   CT   1       0.3793   0.7818
   sI   C1   1       0.3793   0.7818
   sI   C3   1       0.3793   0.7818
   sI   C4   1       0.3793   0.7818
   sI   C7   1       0.3793   0.7818
   sI   C8   1       0.3793   0.7818
   sI   C9   1       0.3793   0.7818
   sI   CV   1       0.3793   0.6932
   sI   CW   1       0.3793   0.6932
   sI   C*   1       0.3793   0.6932
   sI   C0   1       0.3620   1.6028
   sI    F   1       0.3653   0.5838
   sI    H   1       0.2628   0.2962
   sI   HB   1       0.2628   0.2962
   sI   HC   1       0.3418   0.2962
   sI   H1   1       0.3329   0.2962
   sI   H2   1       0.3240   0.2962
   sI   H3   1       0.3151   0.2962
   sI   HA   1       0.3393   0.2895
   sI   H4   1       0.3349   0.2895
   sI   H5   1       0.3304   0.2895
   sI   HO   1       0.2094   0.0000
   sI   HS   1       0.2628   0.2962
   sI   HW   1       0.2094   0.0000
   sI   HP   1       0.3074   0.2962
   sI    I   1       0.4187   1.4950
   sI   Cl   1       0.4294   0.7475
   sI   Na   1       0.3758   0.1244
   sI   IB   1       0.6548   0.7475
   sI   MG   1       0.2800   2.2359
   sI    N   1       0.3719   0.9746
   sI   NA   1       0.3719   0.9746
   sI   NB   1       0.3719   0.9746
   sI   NC   1       0.3719   0.9746
   sI   N2   1       0.3719   0.9746
   sI   N3   1       0.3719   0.9746
   sI   N*   1       0.3719   0.9746
   sI    O   1       0.3574   1.0832
   sI   OB   1       0.3574   1.0832
   sI   OW   1       0.3669   0.9219
   sI   OH   1       0.3627   1.0843
   sI   O3   1       0.3627   1.0843
   sI   OS   1       0.3594   0.9746
   sI   O2   1       0.3574   1.0832
   sI    P   1       0.3964   1.0571
   sI    S   1       0.3875   1.1819
   sI   SH   1       0.3875   1.1819
   sI   CU   1       0.3793   0.6932
   sI   FE   1       0.2094   0.0000
   sI    K   1       0.4462   0.0428
   sI   Rb   1       0.4727   0.0308
   sI   Li   1       0.3107   0.3198
   sI   Zn   1       0.3074   0.2643
   sI HW_tip4pew   1       0.2094   0.0000
   sI OW_tip4pew   1       0.3676   0.9536
   sI HW_tip4p   1       0.2094   0.0000
   sI OW_tip4p   1       0.3670   0.9306
   sI HW_tip5p   1       0.2094   0.0000
   sI OW_tip5p   1       0.3654   0.9455
   sI HW_tip4pd   1       0.2094   0.0000
   sI OW_tip4pd   1       0.3676   1.1550
   sI   MW   1       0.2094   0.0000
   sI MCH3   1       0.2094   0.0000
   sI MNH3   1       0.2094   0.0000
   sI   c3   1       0.3793   0.7818
   sI   hc   1       0.3418   0.2962
   sI    c   1       0.3793   0.6932
   sI    o   1       0.3574   1.0832
   sI    n   1       0.3719   0.9746
   sI   h1   1       0.3329   0.2962
   sI   ca   1       0.3793   0.6932
   sI   ha   1       0.3393   0.2895
   sI   n3   1       0.3719   0.9746
   sI   hx   1       0.3074   0.2962
   sI   n4   1       0.3719   0.9746
   sI   hn   1       0.2628   0.2962
  sCl   Br   1       0.2201   0.0000
  sCl    C   1       0.3900   0.3466
  sCl   C6   1       0.3900   0.3466
  sCl   C5   1       0.3900   0.3466
  sCl   CA   1       0.3900   0.3466
  sCl   CB   1       0.3900   0.3466
  sCl   CC   1       0.3900   0.3466
  sCl   CK   1       0.3900   0.3466
  sCl   CM   1       0.3900   0.3466
  sCl   CN   1       0.3900   0.3466
  sCl   CQ   1       0.3900   0.3466
  sCl   CR   1       0.3900   0.3466
  sCl   CT   1       0.3900   0.3909
  sCl   C1   1       0.3900   0.3909
  sCl   C3   1       0.3900   0.3909
  sCl   C4   1       0.3900   0.3909
  sCl   C7   1       0.3900   0.3909
  sCl   C8   1       0.3900   0.3909
  sCl   C9   1       0.3900   0.3909
  sCl   CV   1       0.3900   0.3466
  sCl   CW   1       0.3900   0.3466
  sCl   C*   1       0.3900   0.3466
  sCl   C0   1       0.3727   0.8014
  sCl    F   1       0.3760   0.2919
  sCl    H   1       0.2735   0.1481
  sCl   HB   1       0.2735   0.1481
  sCl   HC   1       0.3525   0.1481
  sCl   H1   1       0.3436   0.1481
  sCl   H2   1       0.3347   0.1481
  sCl   H3   1       0.3258   0.1481
  sCl   HA   1       0.3500   0.1448
  sCl   H4   1       0.3456   0.1448
  sCl   H5   1       0.3411   0.1448
  sCl   HO   1       0.2201   0.0000
  sCl   HS   1       0.2735   0.1481
  sCl   HW   1       0.2201   0.0000
  sCl   HP   1       0.3181   0.1481
  sCl    I   1       0.4294   0.7475
  sCl   Cl   1       0.4401   0.3737
  sCl   Na   1       0.3865   0.0622
  sCl   IB   1       0.6655   0.3737
  sCl   MG   1       0.2907   1.1179
  sCl    N   1       0.3826   0.4873
  sCl   NA   1       0.3826   0.4873
  sCl   NB   1       0.3826   0.4873
  sCl   NC   1       0.3826   0.4873
  sCl   N2   1       0.3826   0.4873
  sCl   N3   1       0.3826   0.4873
  sCl   N*   1       0.3826   0.4873
  sCl    O   1       0.3680   0.5416
  sCl   OB   1       0.3680   0.5416
  sCl   OW   1       0.3776   0.4609
  sCl   OH   1       0.3734   0.5421
  sCl   O3   1       0.3734   0.5421
  sCl   OS   1       0.3701   0.4873
  sCl   O2   1       0.3680   0.5416
  sCl    P   1       0.4071   0.5286
  sCl    S   1       0.3982   0.5910
  sCl   SH   1       0.3982   0.5910
  sCl   CU   1       0.3900   0.3466
  sCl   FE   1       0.2201   0.0000
  sCl    K   1       0.4569   0.0214
  sCl   Rb   1       0.4834   0.0154
  sCl   Li   1       0.3213   0.1599
  sCl   Zn   1       0.3181   0.1321
  sCl HW_tip4pew   1       0.2201   0.0000
  sCl OW_tip4pew   1       0.3783   0.4768
  sCl HW_tip4p   1       0.2201   0.0000
  sCl OW_tip4p   1       0.3777   0.4653
  sCl HW_tip5p   1       0.2201   0.0000
  sCl OW_tip5p   1       0.3761   0.4728
  sCl HW_tip4pd   1       0.2201   0.0000
  sCl OW_tip4pd   1       0.3783   0.5775
  sCl   MW   1       0.2201   0.0000
  sCl MCH3   1       0.2201   0.0000
  sCl MNH3   1       0.2201   0.0000
  sCl   c3   1       0.3900   0.3909
  sCl   hc   1       0.3525   0.1481
  sCl    c   1       0.3900   0.3466
  sCl    o   1       0.3680   0.5416
  sCl    n   1       0.3826   0.4873
  sCl   h1   1       0.3436   0.1481
  sCl   ca   1       0.3900   0.3466
  sCl   ha   1       0.3500   0.1448
  sCl   n3   1       0.3826   0.4873
  sCl   hx   1       0.3181   0.1481
  sCl   n4   1       0.3826   0.4873
  sCl   hn   1       0.2735   0.1481
  sNa   Br   1       0.1664   0.0000
  sNa    C   1       0.3364   0.0577
  sNa   C6   1       0.3364   0.0577
  sNa   C5   1       0.3364   0.0577
  sNa   CA   1       0.3364   0.0577
  sNa   CB   1       0.3364   0.0577
  sNa   CC   1       0.3364   0.0577
  sNa   CK   1       0.3364   0.0577
  sNa   CM   1       0.3364   0.0577
  sNa   CN   1       0.3364   0.0577
  sNa   CQ   1       0.3364   0.0577
  sNa   CR   1       0.3364   0.0577
  sNa   CT   1       0.3364   0.0651
  sNa   C1   1       0.3364   0.0651
  sNa   C3   1       0.3364   0.0651
  sNa   C4   1       0.3364   0.0651
  sNa   C7   1       0.3364   0.0651
  sNa   C8   1       0.3364   0.0651
  sNa   C9   1       0.3364   0.0651
  sNa   CV   1       0.3364   0.0577
  sNa   CW   1       0.3364   0.0577
  sNa   C*   1       0.3364   0.0577
  sNa   C0   1       0.3190   0.1334
  sNa    F   1       0.3223   0.0486
  sNa    H   1       0.2199   0.0246
  sNa   HB   1       0.2199   0.0246
  sNa   HC   1       0.2989   0.0246
  sNa   H1   1       0.2900   0.0246
  sNa   H2   1       0.2811   0.0246
  sNa   H3   1       0.2722   0.0246
  sNa   HA   1       0.2964   0.0241
  sNa   H4   1       0.2919   0.0241
  sNa   H5   1       0.2875   0.0241
  sNa   HO   1       0.1664   0.0000
  sNa   HS   1       0.2199   0.0246
  sNa   HW   1       0.1664   0.0000
  sNa   HP   1       0.2644   0.0246
  sNa    I   1       0.3758   0.1244
  sNa   Cl   1       0.3865   0.0622
  sNa   Na   1       0.3328   0.0104
  sNa   IB   1       0.6119   0.0622
  sNa   MG   1       0.2370   0.1861
  sNa    N   1       0.3289   0.0811
  sNa   NA   1       0.3289   0.0811
  sNa   NB   1       0.3289   0.0811
  sNa   NC   1       0.3289   0.0811
  sNa   N2   1       0.3289   0.0811
  sNa   N3   1       0.3289   0.0811
  sNa   N*   1       0.3289   0.0811
  sNa    O   1       0.3144   0.0901
  sNa   OB   1       0.3144   0.0901
  sNa   OW   1       0.3240   0.0767
  sNa   OH   1       0.3197   0.0902
  sNa   O3   1       0.3197   0.0902
  sNa   OS   1       0.3164   0.0811
  sNa   O2   1       0.3144   0.0901
  sNa    P   1       0.3535   0.0880
  sNa    S   1       0.3446   0.0984
  sNa   SH   1       0.3446   0.0984
  sNa   CU   1       0.3364   0.0577
  sNa   FE   1       0.1664   0.0000
  sNa    K   1       0.4032   0.0036
  sNa   Rb   1       0.4298   0.0026
  sNa   Li   1       0.2677   0.0266
  sNa   Zn   1       0.2644   0.0220
  sNa HW_tip4pew   1       0.1664   0.0000
  sNa OW_tip4pew   1       0.3246   0.0794
  sNa HW_tip4p   1       0.1664   0.0000
  sNa OW_tip4p   1       0.3241   0.0774
  sNa HW_tip5p   1       0.1664   0.0000
  sNa OW_tip5p   1       0.3224   0.0787
  sNa HW_tip4pd   1       0.1664   0.0000
  sNa OW_tip4pd   1       0.3247   0.0961
  sNa   MW   1       0.1664   0.0000
  sNa MCH3   1       0.1664   0.0000
  sNa MNH3   1       0.1664   0.0000
  sNa   c3   1       0.3364   0.0651
  sNa   hc   1       0.2989   0.0246
  sNa    c   1       0.3364   0.0577
  sNa    o   1       0.3144   0.0901
  sNa    n   1       0.3289   0.0811
  sNa   h1   1       0.2900   0.0246
  sNa   ca   1       0.3364   0.0577
  sNa   ha   1       0.2964   0.0241
  sNa   n3   1       0.3289   0.0811
  sNa   hx   1       0.2644   0.0246
  sNa   n4   1       0.3289   0.0811
  sNa   hn   1       0.2199   0.0246
  sIB   Br   1       0.4454   0.0000
  sIB    C   1       0.6154   0.3466
  sIB   C6   1       0.6154   0.3466
  sIB   C5   1       0.6154   0.3466
  sIB   CA   1       0.6154   0.3466
  sIB   CB   1       0.6154   0.3466
  sIB   CC   1       0.6154   0.3466
  sIB   CK   1       0.6154   0.3466
  sIB   CM   1       0.6154   0.3466
  sIB   CN   1       0.6154   0.3466
  sIB   CQ   1       0.6154   0.3466
  sIB   CR   1       0.6154   0.3466
  sIB   CT   1       0.6154   0.3909
  sIB   C1   1       0.6154   0.3909
  sIB   C3   1       0.6154   0.3909
  sIB   C4   1       0.6154   0.3909
  sIB   C7   1       0.6154   0.3909
  sIB   C8   1       0.6154   0.3909
  sIB   C9   1       0.6154   0.3909
  sIB   CV   1       0.6154   0.3466
  sIB   CW   1       0.6154   0.3466
  sIB   C*   1       0.6154   0.3466
  sIB   C0   1       0.5981   0.8014
  sIB    F   1       0.6014   0.2919
  sIB    H   1       0.4989   0.1481
  sIB   HB   1       0.4989   0.1481
  sIB   HC   1       0.5779   0.1481
  sIB   H1   1       0.5690   0.1481
  sIB   H2   1       0.5601   0.1481
  sIB   H3   1       0.5512   0.1481
  sIB   HA   1       0.5754   0.1448
  sIB   H4   1       0.5710   0.1448
  sIB   H5   1       0.5665   0.1448
  sIB   HO   1       0.4454   0.0000
  sIB   HS   1       0.4989   0.1481
  sIB   HW   1       0.4454   0.0000
  sIB   HP   1       0.5434   0.1481
  sIB    I   1       0.6548   0.7475
  sIB   Cl   1       0.6655   0.3737
  sIB   Na   1       0.6119   0.0622
  sIB   IB   1       0.8909   0.3737
  sIB   MG   1       0.5161   1.1179
  sIB    N   1       0.6079   0.4873
  sIB   NA   1       0.6079   0.4873
  sIB   NB   1       0.6079   0.4873
  sIB   NC   1       0.6079   0.4873
  sIB   N2   1       0.6079   0.4873
  sIB   N3   1       0.6079   0.4873
  sIB   N*   1       0.6079   0.4873
  sIB    O   1       0.5934   0.5416
  sIB   OB   1       0.5934   0.5416
  sIB   OW   1       0.6030   0.4609
  sIB   OH   1       0.5988   0.5421
  sIB   O3   1       0.5988   0.5421
  sIB   OS   1       0.5954   0.4873
  sIB   O2   1       0.5934   0.5416
  sIB    P   1       0.6325   0.5286
  sIB    S   1       0.6236   0.5910
  sIB   SH   1       0.6236   0.5910
  sIB   CU   1       0.6154   0.3466
  sIB   FE   1       0.4454   0.0000
  sIB    K   1       0.6823   0.0214
  sIB   Rb   1       0.7088   0.0154
  sIB   Li   1       0.5467   0.1599
  sIB   Zn   1       0.5434   0.1321
  sIB HW_tip4pew   1       0.4454   0.0000
  sIB OW_tip4pew   1       0.6037   0.4768
  sIB HW_tip4p   1       0.4454   0.0000
  sIB OW_tip4p   1       0.6031   0.4653
  sIB HW_tip5p   1       0.4454   0.0000
  sIB OW_tip5p   1       0.6014   0.4728
  sIB HW_tip4pd   1       0.4454   0.0000
  sIB OW_tip4pd   1       0.6037   0.5775
  sIB   MW   1       0.4454   0.0000
  sIB MCH3   1       0.4454   0.0000
  sIB MNH3   1       0.4454   0.0000
  sIB   c3   1       0.6154   0.3909
  sIB   hc   1       0.5779   0.1481
  sIB    c   1       0.6154   0.3466
  sIB    o   1       0.5934   0.5416
  sIB    n   1       0.6079   0.4873
  sIB   h1   1       0.5690   0.1481
  sIB   ca   1       0.6154   0.3466
  sIB   ha   1       0.5754   0.1448
  sIB   n3   1       0.6079   0.4873
  sIB   hx   1       0.5434   0.1481
  sIB   n4   1       0.6079   0.4873
  sIB   hn   1       0.4989   0.1481
  sMG   Br   1       0.0706   0.0000
  sMG    C   1       0.2406   1.0367
  sMG   C6   1       0.2406   1.0367
  sMG   C5   1       0.2406   1.0367
  sMG   CA   1       0.2406   1.0367
  sMG   CB   1       0.2406   1.0367
  sMG   CC   1       0.2406   1.0367
  sMG   CK   1       0.2406   1.0367
  sMG   CM   1       0.2406   1.0367
  sMG   CN   1       0.2406   1.0367
  sMG   CQ   1       0.2406   1.0367
  sMG   CR   1       0.2406   1.0367
  sMG   CT   1       0.2406   1.1693
  sMG   C1   1       0.2406   1.1693
  sMG   C3   1       0.2406   1.1693
  sMG   C4   1       0.2406   1.1693
  sMG   C7   1       0.2406   1.1693
  sMG   C8   1       0.2406   1.1693
  sMG   C9   1       0.2406   1.1693
  sMG   CV   1       0.2406   1.0367
  sMG   CW   1       0.2406   1.0367
  sMG   C*   1       0.2406   1.0367
  sMG   C0   1       0.2232   2.3972
  sMG    F   1       0.2265   0.8731
  sMG    H   1       0.1241   0.4430
  sMG   HB   1       0.1241   0.4430
  sMG   HC   1       0.2031   0.4430
  sMG   H1   1       0.1942   0.4430
  sMG   H2   1       0.1853   0.4430
  sMG   H3   1       0.1764   0.4430
  sMG   HA   1       0.2006   0.4330
  sMG   H4   1       0.1961   0.4330
  sMG   H5   1       0.1917   0.4330
  sMG   HO   1       0.0706   0.0000
  sMG   HS   1       0.1241   0.4430
  sMG   HW   1       0.0706   0.0000
  sMG   HP   1       0.1686   0.4430
  sMG    I   1       0.2800   2.2359
  sMG   Cl   1       0.2907   1.1179
  sMG   Na   1       0.2370   0.1861
  sMG   IB   1       0.5161   1.1179
  sMG   MG   1       0.1412   3.3439
  sMG    N   1       0.2331   1.4576
  sMG   NA   1       0.2331   1.4576
  sMG   NB   1       0.2331   1.4576
  sMG   NC   1       0.2331   1.4576
  sMG   N2   1       0.2331   1.4576
  sMG   N3   1       0.2331   1.4576
  sMG   N*   1       0.2331   1.4576
  sMG    O   1       0.2186   1.6201
  sMG   OB   1       0.2186   1.6201
  sMG   OW   1       0.2281   1.3787
  sMG   OH   1       0.2239   1.6216
  sMG   O3   1       0.2239   1.6216
  sMG   OS   1       0.2206   1.4576
  sMG   O2   1       0.2186   1.6201
  sMG    P   1       0.2577   1.5810
  sMG    S   1       0.2488   1.7676
  sMG   SH   1       0.2488   1.7676
  sMG   CU   1       0.2406   1.0367
  sMG   FE   1       0.0706   0.0000
  sMG    K   1       0.3074   0.0640
  sMG   Rb   1       0.3340   0.0461
  sMG   Li   1       0.1719   0.4782
  sMG   Zn   1       0.1686   0.3953
  sMG HW_tip4pew   1       0.0706   0.0000
  sMG OW_tip4pew   1       0.2288   1.4262
  sMG HW_tip4p   1       0.0706   0.0000
  sMG OW_tip4p   1       0.2283   1.3918
  sMG HW_tip5p   1       0.0706   0.0000
  sMG OW_tip5p   1       0.2266   1.4141
  sMG HW_tip4pd   1       0.0706   0.0000
  sMG OW_tip4pd   1       0.2289   1.7274
  sMG   MW   1       0.0706   0.0000
  sMG MCH3   1       0.0706   0.0000
  sMG MNH3   1       0.0706   0.0000
  sMG   c3   1       0.2406   1.1693
  sMG   hc   1       0.2031   0.4430
  sMG    c   1       0.2406   1.0367
  sMG    o   1       0.2186   1.6201
  sMG    n   1       0.2331   1.4576
  sMG   h1   1       0.1942   0.4430
  sMG   ca   1       0.2406   1.0367
  sMG   ha   1       0.2006   0.4330
  sMG   n3   1       0.2331   1.4576
  sMG   hx   1       0.1686   0.4430
  sMG   n4   1       0.2331   1.4576
  sMG   hn   1       0.1241   0.4430
   sN   Br   1       0.1625   0.0000
   sN    C   1       0.3325   0.4519
   sN   C6   1       0.3325   0.4519
   sN   C5   1       0.3325   0.4519
   sN   CA   1       0.3325   0.4519
   sN   CB   1       0.3325   0.4519
   sN   CC   1       0.3325   0.4519
   sN   CK   1       0.3325   0.4519
   sN   CM   1       0.3325   0.4519
   sN   CN   1       0.3325   0.4519
   sN   CQ   1       0.3325   0.4519
   sN   CR   1       0.3325   0.4519
   sN   CT   1       0.3325   0.5097
   sN   C1   1       0.3325   0.5097
   sN   C3   1       0.3325   0.5097
   sN   C4   1       0.3325   0.5097
   sN   C7   1       0.3325   0.5097
   sN   C8   1       0.3325   0.5097
   sN   C9   1       0.3325   0.5097
   sN   CV   1       0.3325   0.4519
   sN   CW   1       0.3325   0.4519
   sN   C*   1       0.3325   0.4519
   sN   C0   1       0.3151   1.0449
   sN    F   1       0.3184   0.3806
   sN    H   1       0.2160   0.1931
   sN   HB   1       0.2160   0.1931
   sN   HC   1       0.2950   0.1931
   sN   H1   1       0.2861   0.1931
   sN   H2   1       0.2772   0.1931
   sN   H3   1       0.2682   0.1931
   sN   HA   1       0.2925   0.1887
   sN   H4   1       0.2880   0.1887
   sN   H5   1       0.2836   0.1887
   sN   HO   1       0.1625   0.0000
   sN   HS   1       0.2160   0.1931
   sN   HW   1       0.1625   0.0000
   sN   HP   1       0.2605   0.1931
   sN    I   1       0.3719   0.9746
   sN   Cl   1       0.3826   0.4873
   sN   Na   1       0.3289   0.0811
   sN   IB   1       0.6079   0.4873
   sN   MG   1       0.2331   1.4576
   sN    N   1       0.3250   0.6354
   sN   NA   1       0.3250   0.6354
   sN   NB   1       0.3250   0.6354
   sN   NC   1       0.3250   0.6354
   sN   N2   1       0.3250   0.6354
   sN   N3   1       0.3250   0.6354
   sN   N*   1       0.3250   0.6354
   sN    O   1       0.3105   0.7062
   sN   OB   1       0.3105   0.7062
   sN   OW   1       0.3200   0.6010
   sN   OH   1       0.3158   0.7069
   sN   O3   1       0.3158   0.7069
   sN   OS   1       0.3125   0.6354
   sN   O2   1       0.3105   0.7062
   sN    P   1       0.3496   0.6892
   sN    S   1       0.3407   0.7705
   sN   SH   1       0.3407   0.7705
   sN   CU   1       0.3325   0.4519
   sN   FE   1       0.1625   0.0000
   sN    K   1       0.3993   0.0279
   sN   Rb   1       0.4258   0.0201
   sN   Li   1       0.2638   0.2085
   sN   Zn   1       0.2605   0.1723
   sN HW_tip4pew   1       0.1625   0.0000
   sN OW_tip4pew   1       0.3207   0.6217
   sN HW_tip4p   1       0.1625   0.0000
   sN OW_tip4p   1       0.3202   0.6067
   sN HW_tip5p   1       0.1625   0.0000
   sN OW_tip5p   1       0.3185   0.6164
   sN HW_tip4pd   1       0.1625   0.0000
   sN OW_tip4pd   1       0.3207   0.7530
   sN   MW   1       0.1625   0.0000
   sN MCH3   1       0.1625   0.0000
   sN MNH3   1       0.1625   0.0000
   sN   c3   1       0.3325   0.5097
   sN   hc   1       0.2950   0.1931
   sN    c   1       0.3325   0.4519
   sN    o   1       0.3105   0.7062
   sN    n   1       0.3250   0.6354
   sN   h1   1       0.2861   0.1931
   sN   ca   1       0.3325   0.4519
   sN   ha   1       0.2925   0.1887
   sN   n3   1       0.3250   0.6354
   sN   hx   1       0.2605   0.1931
   sN   n4   1       0.3250   0.6354
   sN   hn   1       0.2160   0.1931
  sNA   Br   1       0.1625   0.0000
  sNA    C   1       0.3325   0.4519
  sNA   C6   1       0.3325   0.4519
  sNA   C5   1       0.3325   0.4519
  sNA   CA   1       0.3325   0.4519
  sNA   CB   1       0.3325   0.4519
  sNA   CC   1       0.3325   0.4519
  sNA   CK   1       0.3325   0.4519
  sNA   CM   1       0.3325   0.4519
  sNA   CN   1       0.3325   0.4519
  sNA   CQ   1       0.3325   0.4519
  sNA   CR   1       0.3325   0.4519
  sNA   CT   1       0.3325   0.5097
  sNA   C1   1       0.3325   0.5097
  sNA   C3   1       0.3325   0.5097
  sNA   C4   1       0.3325   0.5097
  sNA   C7   1       0.3325   0.5097
  sNA   C8   1       0.3325   0.5097
  sNA   C9   1       0.3325   0.5097
  sNA   CV   1       0.3325   0.4519
  sNA   CW   1       0.3325   0.4519
  sNA   C*   1       0.3325   0.4519
  sNA   C0   1       0.3151   1.0449
  sNA    F   1       0.3184   0.3806
  sNA    H   1       0.2160   0.1931
  sNA   HB   1       0.2160   0.1931
  sNA   HC   1       0.2950   0.1931
  sNA   H1   1       0.2861   0.1931
  sNA   H2   1       0.2772   0.1931
  sNA   H3   1       0.2682   0.1931
  sNA   HA   1       0.2925   0.1887
  sNA   H4   1       0.2880   0.1887
  sNA   H5   1       0.2836   0.1887
  sNA   HO   1       0.1625   0.0000
  sNA   HS   1       0.2160   0.1931
  sNA   HW   1       0.1625   0.0000
  sNA   HP   1       0.2605   0.1931
  sNA    I   1       0.3719   0.9746
  sNA   Cl   1       0.3826   0.4873
  sNA   Na   1       0.3289   0.0811
  sNA   IB   1       0.6079   0.4873
  sNA   MG   1       0.2331   1.4576
  sNA    N   1       0.3250   0.6354
  sNA   NA   1       0.3250   0.6354
  sNA   NB   1       0.3250   0.6354
  sNA   NC   1       0.3250   0.6354
  sNA   N2   1       0.3250   0.6354
  sNA   N3   1       0.3250   0.6354
  sNA   N*   1       0.3250   0.6354
  sNA    O   1       0.3105   0.7062
  sNA   OB   1       0.3105   0.7062
  sNA   OW   1       0.3200   0.6010
  sNA   OH   1       0.3158   0.7069
  sNA   O3   1       0.3158   0.7069
  sNA   OS   1       0.3125   0.6354
  sNA   O2   1       0.3105   0.7062
  sNA    P   1       0.3496   0.6892
  sNA    S   1       0.3407   0.7705
  sNA   SH   1       0.3407   0.7705
  sNA   CU   1       0.3325   0.4519
  sNA   FE   1       0.1625   0.0000
  sNA    K   1       0.3993   0.0279
  sNA   Rb   1       0.4258   0.0201
  sNA   Li   1       0.2638   0.2085
  sNA   Zn   1       0.2605   0.1723
  sNA HW_tip4pew   1       0.1625   0.0000
  sNA OW_tip4pew   1       0.3207   0.6217
  sNA HW_tip4p   1       0.1625   0.0000
  sNA OW_tip4p   1       0.3202   0.6067
  sNA HW_tip5p   1       0.1625   0.0000
  sNA OW_tip5p   1       0.3185   0.6164
  sNA HW_tip4pd   1       0.1625   0.0000
  sNA OW_tip4pd   1       0.3207   0.7530
  sNA   MW   1       0.1625   0.0000
  sNA MCH3   1       0.1625   0.0000
  sNA MNH3   1       0.1625   0.0000
  sNA   c3   1       0.3325   0.5097
  sNA   hc   1       0.2950   0.1931
  sNA    c   1       0.3325   0.4519
  sNA    o   1       0.3105   0.7062
  sNA    n   1       0.3250   0.6354
  sNA   h1   1       0.2861   0.1931
  sNA   ca   1       0.3325   0.4519
  sNA   ha   1       0.2925   0.1887
  sNA   n3   1       0.3250   0.6354
  sNA   hx   1       0.2605   0.1931
  sNA   n4   1       0.3250   0.6354
  sNA   hn   1       0.2160   0.1931
  sNB   Br   1       0.1625   0.0000
  sNB    C   1       0.3325   0.4519
  sNB   C6   1       0.3325   0.4519
  sNB   C5   1       0.3325   0.4519
  sNB   CA   1       0.3325   0.4519
  sNB   CB   1       0.3325   0.4519
  sNB   CC   1       0.3325   0.4519
  sNB   CK   1       0.3325   0.4519
  sNB   CM   1       0.3325   0.4519
  sNB   CN   1       0.3325   0.4519
  sNB   CQ   1       0.3325   0.4519
  sNB   CR   1       0.3325   0.4519
  sNB   CT   1       0.3325   0.5097
  sNB   C1   1       0.3325   0.5097
  sNB   C3   1       0.3325   0.5097
  sNB   C4   1       0.3325   0.5097
  sNB   C7   1       0.3325   0.5097
  sNB   C8   1       0.3325   0.5097
  sNB   C9   1       0.3325   0.5097
  sNB   CV   1       0.3325   0.4519
  sNB   CW   1       0.3325   0.4519
  sNB   C*   1       0.3325   0.4519
  sNB   C0   1       0.3151   1.0449
  sNB    F   1       0.3184   0.3806
  sNB    H   1       0.2160   0.1931
  sNB   HB   1       0.2160   0.1931
  sNB   HC   1       0.2950   0.1931
  sNB   H1   1       0.2861   0.1931
  sNB   H2   1       0.2772   0.1931
  sNB   H3   1       0.2682   0.1931
  sNB   HA   1       0.2925   0.1887
  sNB   H4   1       0.2880   0.1887
  sNB   H5   1       0.2836   0.1887
  sNB   HO   1       0.1625   0.0000
  sNB   HS   1       0.2160   0.1931
  sNB   HW   1       0.1625   0.0000
  sNB   HP   1       0.2605   0.1931
  sNB    I   1       0.3719   0.9746
  sNB   Cl   1       0.3826   0.4873
  sNB   Na   1       0.3289   0.0811
  sNB   IB   1       0.6079   0.4873
  sNB   MG   1       0.2331   1.4576
  sNB    N   1       0.3250   0.6354
  sNB   NA   1       0.3250   0.6354
  sNB   NB   1       0.3250   0.6354
  sNB   NC   1       0.3250   0.6354
  sNB   N2   1       0.3250   0.6354
  sNB   N3   1       0.3250   0.6354
  sNB   N*   1       0.3250   0.6354
  sNB    O   1       0.3105   0.7062
  sNB   OB   1       0.3105   0.7062
  sNB   OW   1       0.3200   0.6010
  sNB   OH   1       0.3158   0.7069
  sNB   O3   1       0.3158   0.7069
  sNB   OS   1       0.3125   0.6354
  sNB   O2   1       0.3105   0.7062
  sNB    P   1       0.3496   0.6892
  sNB    S   1       0.3407   0.7705
  sNB   SH   1       0.3407   0.7705
  sNB   CU   1       0.3325   0.4519
  sNB   FE   1       0.1625   0.0000
  sNB    K   1       0.3993   0.0279
  sNB   Rb   1       0.4258   0.0201
  sNB   Li   1       0.2638   0.2085
  sNB   Zn   1       0.2605   0.1723
  sNB HW_tip4pew   1       0.1625   0.0000
  sNB OW_tip4pew   1       0.3207   0.6217
  sNB HW_tip4p   1       0.1625   0.0000
  sNB OW_tip4p   1       0.3202   0.6067
  sNB HW_tip5p   1       0.1625   0.0000
  sNB OW_tip5p   1       0.3185   0.6164
  sNB HW_tip4pd   1       0.1625   0.0000
  sNB OW_tip4pd   1       0.3207   0.7530
  sNB   MW   1       0.1625   0.0000
  sNB MCH3   1       0.1625   0.0000
  sNB MNH3   1       0.1625   0.0000
  sNB   c3   1       0.3325   0.5097
  sNB   hc   1       0.2950   0.1931
  sNB    c   1       0.3325   0.4519
  sNB    o   1       0.3105   0.7062
  sNB    n   1       0.3250   0.6354
  sNB   h1   1       0.2861   0.1931
  sNB   ca   1       0.3325   0.4519
  sNB   ha   1       0.2925   0.1887
  sNB   n3   1       0.3250   0.6354
  sNB   hx   1       0.2605   0.1931
  sNB   n4   1       0.3250   0.6354
  sNB   hn   1       0.2160   0.1931
  sNC   Br   1       0.1625   0.0000
  sNC    C   1       0.3325   0.4519
  sNC   C6   1       0.3325   0.4519
  sNC   C5   1       0.3325   0.4519
  sNC   CA   1       0.3325   0.4519
  sNC   CB   1       0.3325   0.4519
  sNC   CC   1       0.3325   0.4519
  sNC   CK   1       0.3325   0.4519
  sNC   CM   1       0.3325   0.4519
  sNC   CN   1       0.3325   0.4519
  sNC   CQ   1       0.3325   0.4519
  sNC   CR   1       0.3325   0.4519
  sNC   CT   1       0.3325   0.5097
  sNC   C1   1       0.3325   0.5097
  sNC   C3   1       0.3325   0.5097
  sNC   C4   1       0.3325   0.5097
  sNC   C7   1       0.3325   0.5097
  sNC   C8   1       0.3325   0.5097
  sNC   C9   1       0.3325   0.5097
  sNC   CV   1       0.3325   0.4519
  sNC   CW   1       0.3325   0.4519
  sNC   C*   1       0.3325   0.4519
  sNC   C0   1       0.3151   1.0449
  sNC    F   1       0.3184   0.3806
  sNC    H   1       0.2160   0.1931
  sNC   HB   1       0.2160   0.1931
  sNC   HC   1       0.2950   0.1931
  sNC   H1   1       0.2861   0.1931
  sNC   H2   1       0.2772   0.1931
  sNC   H3   1       0.2682   0.1931
  sNC   HA   1       0.2925   0.1887
  sNC   H4   1       0.2880   0.1887
  sNC   H5   1       0.2836   0.1887
  sNC   HO   1       0.1625   0.0000
  sNC   HS   1       0.2160   0.1931
  sNC   HW   1       0.1625   0.0000
  sNC   HP   1       0.2605   0.1931
  sNC    I   1       0.3719   0.9746
  sNC   Cl   1       0.3826   0.4873
  sNC   Na   1       0.3289   0.0811
  sNC   IB   1       0.6079   0.4873
  sNC   MG   1       0.2331   1.4576
  sNC    N   1       0.3250   0.6354
  sNC   NA   1       0.3250   0.6354
  sNC   NB   1       0.3250   0.6354
  sNC   NC   1       0.3250   0.6354
  sNC   N2   1       0.3250   0.6354
  sNC   N3   1       0.3250   0.6354
  sNC   N*   1       0.3250   0.6354
  sNC    O   1       0.3105   0.7062
  sNC   OB   1       0.3105   0.7062
  sNC   OW   1       0.3200   0.6010
  sNC   OH   1       0.3158   0.7069
  sNC   O3   1       0.3158   0.7069
  sNC   OS   1       0.3125   0.6354
  sNC   O2   1       0.3105   0.7062
  sNC    P   1       0.3496   0.6892
  sNC    S   1       0.3407   0.7705
  sNC   SH   1       0.3407   0.7705
  sNC   CU   1       0.3325   0.4519
  sNC   FE   1       0.1625   0.0000
  sNC    K   1       0.3993   0.0279
  sNC   Rb   1       0.4258   0.0201
  sNC   Li   1       0.2638   0.2085
  sNC   Zn   1       0.2605   0.1723
  sNC HW_tip4pew   1       0.1625   0.0000
  sNC OW_tip4pew   1       0.3207   0.6217
  sNC HW_tip4p   1       0.1625   0.0000
  sNC OW_tip4p   1       0.3202   0.6067
  sNC HW_tip5p   1       0.1625   0.0000
  sNC OW_tip5p   1       0.3185   0.6164
  sNC HW_tip4pd   1       0.1625   0.0000
  sNC OW_tip4pd   1       0.3207   0.7530
  sNC   MW   1       0.1625   0.0000
  sNC MCH3   1       0.1625   0.0000
  sNC MNH3   1       0.1625   0.0000
  sNC   c3   1       0.3325   0.5097
  sNC   hc   1       0.2950   0.1931
  sNC    c   1       0.3325   0.4519
  sNC    o   1       0.3105   0.7062
  sNC    n   1       0.3250   0.6354
  sNC   h1   1       0.2861   0.1931
  sNC   ca   1       0.3325   0.4519
  sNC   ha   1       0.2925   0.1887
  sNC   n3   1       0.3250   0.6354
  sNC   hx   1       0.2605   0.1931
  sNC   n4   1       0.3250   0.6354
  sNC   hn   1       0.2160   0.1931
  sN2   Br   1       0.1625   0.0000
  sN2    C   1       0.3325   0.4519
  sN2   C6   1       0.3325   0.4519
  sN2   C5   1       0.3325   0.4519
  sN2   CA   1       0.3325   0.4519
  sN2   CB   1       0.3325   0.4519
  sN2   CC   1       0.3325   0.4519
  sN2   CK   1       0.3325   0.4519
  sN2   CM   1       0.3325   0.4519
  sN2   CN   1       0.3325   0.4519
  sN2   CQ   1       0.3325   0.4519
  sN2   CR   1       0.3325   0.4519
  sN2   CT   1       0.3325   0.5097
  sN2   C1   1       0.3325   0.5097
  sN2   C3   1       0.3325   0.5097
  sN2   C4   1       0.3325   0.5097
  sN2   C7   1       0.3325   0.5097
  sN2   C8   1       0.3325   0.5097
  sN2   C9   1       0.3325   0.5097
  sN2   CV   1       0.3325   0.4519
  sN2   CW   1       0.3325   0.4519
  sN2   C*   1       0.3325   0.4519
  sN2   C0   1       0.3151   1.0449
  sN2    F   1       0.3184   0.3806
  sN2    H   1       0.2160   0.1931
  sN2   HB   1       0.2160   0.1931
  sN2   HC   1       0.2950   0.1931
  sN2   H1   1       0.2861   0.1931
  sN2   H2   1       0.2772   0.1931
  sN2   H3   1       0.2682   0.1931
  sN2   HA   1       0.2925   0.1887
  sN2   H4   1       0.2880   0.1887
  sN2   H5   1       0.2836   0.1887
  sN2   HO   1       0.1625   0.0000
  sN2   HS   1       0.2160   0.1931
  sN2   HW   1       0.1625   0.0000
  sN2   HP   1       0.2605   0.1931
  sN2    I   1       0.3719   0.9746
  sN2   Cl   1       0.3826   0.4873
  sN2   Na   1       0.3289   0.0811
  sN2   IB   1       0.6079   0.4873
  sN2   MG   1       0.2331   1.4576
  sN2    N   1       0.3250   0.6354
  sN2   NA   1       0.3250   0.6354
  sN2   NB   1       0.3250   0.6354
  sN2   NC   1       0.3250   0.6354
  sN2   N2   1       0.3250   0.6354
  sN2   N3   1       0.3250   0.6354
  sN2   N*   1       0.3250   0.6354
  sN2    O   1       0.3105   0.7062
  sN2   OB   1       0.3105   0.7062
  sN2   OW   1       0.3200   0.6010
  sN2   OH   1       0.3158   0.7069
  sN2   O3   1       0.3158   0.7069
  sN2   OS   1       0.3125   0.6354
  sN2   O2   1       0.3105   0.7062
  sN2    P   1       0.3496   0.6892
  sN2    S   1       0.3407   0.7705
  sN2   SH   1       0.3407   0.7705
  sN2   CU   1       0.3325   0.4519
  sN2   FE   1       0.1625   0.0000
  sN2    K   1       0.3993   0.0279
  sN2   Rb   1       0.4258   0.0201
  sN2   Li   1       0.2638   0.2085
  sN2   Zn   1       0.2605   0.1723
  sN2 HW_tip4pew   1       0.1625   0.0000
  sN2 OW_tip4pew   1       0.3207   0.6217
  sN2 HW_tip4p   1       0.1625   0.0000
  sN2 OW_tip4p   1       0.3202   0.6067
  sN2 HW_tip5p   1       0.1625   0.0000
  sN2 OW_tip5p   1       0.3185   0.6164
  sN2 HW_tip4pd   1       0.1625   0.0000
  sN2 OW_tip4pd   1       0.3207   0.7530
  sN2   MW   1       0.1625   0.0000
  sN2 MCH3   1       0.1625   0.0000
  sN2 MNH3   1       0.1625   0.0000
  sN2   c3   1       0.3325   0.5097
  sN2   hc   1       0.2950   0.1931
  sN2    c   1       0.3325   0.4519
  sN2    o   1       0.3105   0.7062
  sN2    n   1       0.3250   0.6354
  sN2   h1   1       0.2861   0.1931
  sN2   ca   1       0.3325   0.4519
  sN2   ha   1       0.2925   0.1887
  sN2   n3   1       0.3250   0.6354
  sN2   hx   1       0.2605   0.1931
  sN2   n4   1       0.3250   0.6354
  sN2   hn   1       0.2160   0.1931
  sN3   Br   1       0.1625   0.0000
  sN3    C   1       0.3325   0.4519
  sN3   C6   1       0.3325   0.4519
  sN3   C5   1       0.3325   0.4519
  sN3   CA   1       0.3325   0.4519
  sN3   CB   1       0.3325   0.4519
  sN3   CC   1       0.3325   0.4519
  sN3   CK   1       0.3325   0.4519
  sN3   CM   1       0.3325   0.4519
  sN3   CN   1       0.3325   0.4519
  sN3   CQ   1       0.3325   0.4519
  sN3   CR   1       0.3325   0.4519
  sN3   CT   1       0.3325   0.5097
  sN3   C1   1       0.3325   0.5097
  sN3   C3   1       0.3325   0.5097
  sN3   C4   1       0.3325   0.5097
  sN3   C7   1       0.3325   0.5097
  sN3   C8   1       0.3325   0.5097
  sN3   C9   1       0.3325   0.5097
  sN3   CV   1       0.3325   0.4519
  sN3   CW   1       0.3325   0.4519
  sN3   C*   1       0.3325   0.4519
  sN3   C0   1       0.3151   1.0449
  sN3    F   1       0.3184   0.3806
  sN3    H   1       0.2160   0.1931
  sN3   HB   1       0.2160   0.1931
  sN3   HC   1       0.2950   0.1931
  sN3   H1   1       0.2861   0.1931
  sN3   H2   1       0.2772   0.1931
  sN3   H3   1       0.2682   0.1931
  sN3   HA   1       0.2925   0.1887
  sN3   H4   1       0.2880   0.1887
  sN3   H5   1       0.2836   0.1887
  sN3   HO   1       0.1625   0.0000
  sN3   HS   1       0.2160   0.1931
  sN3   HW   1       0.1625   0.0000
  sN3   HP   1       0.2605   0.1931
  sN3    I   1       0.3719   0.9746
  sN3   Cl   1       0.3826   0.4873
  sN3   Na   1       0.3289   0.0811
  sN3   IB   1       0.6079   0.4873
  sN3   MG   1       0.2331   1.4576
  sN3    N   1       0.3250   0.6354
  sN3   NA   1       0.3250   0.6354
  sN3   NB   1       0.3250   0.6354
  sN3   NC   1       0.3250   0.6354
  sN3   N2   1       0.3250   0.6354
  sN3   N3   1       0.3250   0.6354
  sN3   N*   1       0.3250   0.6354
  sN3    O   1       0.3105   0.7062
  sN3   OB   1       0.3105   0.7062
  sN3   OW   1       0.3200   0.6010
  sN3   OH   1       0.3158   0.7069
  sN3   O3   1       0.3158   0.7069
  sN3   OS   1       0.3125   0.6354
  sN3   O2   1       0.3105   0.7062
  sN3    P   1       0.3496   0.6892
  sN3    S   1       0.3407   0.7705
  sN3   SH   1       0.3407   0.7705
  sN3   CU   1       0.3325   0.4519
  sN3   FE   1       0.1625   0.0000
  sN3    K   1       0.3993   0.0279
  sN3   Rb   1       0.4258   0.0201
  sN3   Li   1       0.2638   0.2085
  sN3   Zn   1       0.2605   0.1723
  sN3 HW_tip4pew   1       0.1625   0.0000
  sN3 OW_tip4pew   1       0.3207   0.6217
  sN3 HW_tip4p   1       0.1625   0.0000
  sN3 OW_tip4p   1       0.3202   0.6067
  sN3 HW_tip5p   1       0.1625   0.0000
  sN3 OW_tip5p   1       0.3185   0.6164
  sN3 HW_tip4pd   1       0.1625   0.0000
  sN3 OW_tip4pd   1       0.3207   0.7530
  sN3   MW   1       0.1625   0.0000
  sN3 MCH3   1       0.1625   0.0000
  sN3 MNH3   1       0.1625   0.0000
  sN3   c3   1       0.3325   0.5097
  sN3   hc   1       0.2950   0.1931
  sN3    c   1       0.3325   0.4519
  sN3    o   1       0.3105   0.7062
  sN3    n   1       0.3250   0.6354
  sN3   h1   1       0.2861   0.1931
  sN3   ca   1       0.3325   0.4519
  sN3   ha   1       0.2925   0.1887
  sN3   n3   1       0.3250   0.6354
  sN3   hx   1       0.2605   0.1931
  sN3   n4   1       0.3250   0.6354
  sN3   hn   1       0.2160   0.1931
  sN*   Br   1       0.1625   0.0000
  sN*    C   1       0.3325   0.4519
  sN*   C6   1       0.3325   0.4519
  sN*   C5   1       0.3325   0.4519
  sN*   CA   1       0.3325   0.4519
  sN*   CB   1       0.3325   0.4519
  sN*   CC   1       0.3325   0.4519
  sN*   CK   1       0.3325   0.4519
  sN*   CM   1       0.3325   0.4519
  sN*   CN   1       0.3325   0.4519
  sN*   CQ   1       0.3325   0.4519
  sN*   CR   1       0.3325   0.4519
  sN*   CT   1       0.3325   0.5097
  sN*   C1   1       0.3325   0.5097
  sN*   C3   1       0.3325   0.5097
  sN*   C4   1       0.3325   0.5097
  sN*   C7   1       0.3325   0.5097
  sN*   C8   1       0.3325   0.5097
  sN*   C9   1       0.3325   0.5097
  sN*   CV   1       0.3325   0.4519
  sN*   CW   1       0.3325   0.4519
  sN*   C*   1       0.3325   0.4519
  sN*   C0   1       0.3151   1.0449
  sN*    F   1       0.3184   0.3806
  sN*    H   1       0.2160   0.1931
  sN*   HB   1       0.2160   0.1931
  sN*   HC   1       0.2950   0.1931
  sN*   H1   1       0.2861   0.1931
  sN*   H2   1       0.2772   0.1931
  sN*   H3   1       0.2682   0.1931
  sN*   HA   1       0.2925   0.1887
  sN*   H4   1       0.2880   0.1887
  sN*   H5   1       0.2836   0.1887
  sN*   HO   1       0.1625   0.0000
  sN*   HS   1       0.2160   0.1931
  sN*   HW   1       0.1625   0.0000
  sN*   HP   1       0.2605   0.1931
  sN*    I   1       0.3719   0.9746
  sN*   Cl   1       0.3826   0.4873
  sN*   Na   1       0.3289   0.0811
  sN*   IB   1       0.6079   0.4873
  sN*   MG   1       0.2331   1.4576
  sN*    N   1       0.3250   0.6354
  sN*   NA   1       0.3250   0.6354
  sN*   NB   1       0.3250   0.6354
  sN*   NC   1       0.3250   0.6354
  sN*   N2   1       0.3250   0.6354
  sN*   N3   1       0.3250   0.6354
  sN*   N*   1       0.3250   0.6354
  sN*    O   1       0.3105   0.7062
  sN*   OB   1       0.3105   0.7062
  sN*   OW   1       0.3200   0.6010
  sN*   OH   1       0.3158   0.7069
  sN*   O3   1       0.3158   0.7069
  sN*   OS   1       0.3125   0.6354
  sN*   O2   1       0.3105   0.7062
  sN*    P   1       0.3496   0.6892
  sN*    S   1       0.3407   0.7705
  sN*   SH   1       0.3407   0.7705
  sN*   CU   1       0.3325   0.4519
  sN*   FE   1       0.1625   0.0000
  sN*    K   1       0.3993   0.0279
  sN*   Rb   1       0.4258   0.0201
  sN*   Li   1       0.2638   0.2085
  sN*   Zn   1       0.2605   0.1723
  sN* HW_tip4pew   1       0.1625   0.0000
  sN* OW_tip4pew   1       0.3207   0.6217
  sN* HW_tip4p   1       0.1625   0.0000
  sN* OW_tip4p   1       0.3202   0.6067
  sN* HW_tip5p   1       0.1625   0.0000
  sN* OW_tip5p   1       0.3185   0.6164
  sN* HW_tip4pd   1       0.1625   0.0000
  sN* OW_tip4pd   1       0.3207   0.7530
  sN*   MW   1       0.1625   0.0000
  sN* MCH3   1       0.1625   0.0000
  sN* MNH3   1       0.1625   0.0000
  sN*   c3   1       0.3325   0.5097
  sN*   hc   1       0.2950   0.1931
  sN*    c   1       0.3325   0.4519
  sN*    o   1       0.3105   0.7062
  sN*    n   1       0.3250   0.6354
  sN*   h1   1       0.2861   0.1931
  sN*   ca   1       0.3325   0.4519
  sN*   ha   1       0.2925   0.1887
  sN*   n3   1       0.3250   0.6354
  sN*   hx   1       0.2605   0.1931
  sN*   n4   1       0.3250   0.6354
  sN*   hn   1       0.2160   0.1931
   sO   Br   1       0.1480   0.0000
   sO    C   1       0.3180   0.5023
   sO   C6   1       0.3180   0.5023
   sO   C5   1       0.3180   0.5023
   sO   CA   1       0.3180   0.5023
   sO   CB   1       0.3180   0.5023
   sO   CC   1       0.3180   0.5023
   sO   CK   1       0.3180   0.5023
   sO   CM   1       0.3180   0.5023
   sO   CN   1       0.3180   0.5023
   sO   CQ   1       0.3180   0.5023
   sO   CR   1       0.3180   0.5023
   sO   CT   1       0.3180   0.5665
   sO   C1   1       0.3180   0.5665
   sO   C3   1       0.3180   0.5665
   sO   C4   1       0.3180   0.5665
   sO   C7   1       0.3180   0.5665
   sO   C8   1       0.3180   0.5665
   sO   C9   1       0.3180   0.5665
   sO   CV   1       0.3180   0.5023
   sO   CW   1       0.3180   0.5023
   sO   C*   1       0.3180   0.5023
   sO   C0   1       0.3006   1.1614
   sO    F   1       0.3039   0.4230
   sO    H   1       0.2014   0.2146
   sO   HB   1       0.2014   0.2146
   sO   HC   1       0.2805   0.2146
   sO   H1   1       0.2716   0.2146
   sO   H2   1       0.2627   0.2146
   sO   H3   1       0.2537   0.2146
   sO   HA   1       0.2780   0.2098
   sO   H4   1       0.2735   0.2098
   sO   H5   1       0.2691   0.2098
   sO   HO   1       0.1480   0.0000
   sO   HS   1       0.2014   0.2146
   sO   HW   1       0.1480   0.0000
   sO   HP   1       0.2460   0.2146
   sO    I   1       0.3574   1.0832
   sO   Cl   1       0.3680   0.5416
   sO   Na   1       0.3144   0.0901
   sO   IB   1       0.5934   0.5416
   sO   MG   1       0.2186   1.6201
   sO    N   1       0.3105   0.7062
   sO   NA   1       0.3105   0.7062
   sO   NB   1       0.3105   0.7062
   sO   NC   1       0.3105   0.7062
   sO   N2   1       0.3105   0.7062
   sO   N3   1       0.3105   0.7062
   sO   N*   1       0.3105   0.7062
   sO    O   1       0.2960   0.7849
   sO   OB   1       0.2960   0.7849
   sO   OW   1       0.3055   0.6680
   sO   OH   1       0.3013   0.7856
   sO   O3   1       0.3013   0.7856
   sO   OS   1       0.2980   0.7062
   sO   O2   1       0.2960   0.7849
   sO    P   1       0.3351   0.7660
   sO    S   1       0.3262   0.8564
   sO   SH   1       0.3262   0.8564
   sO   CU   1       0.3180   0.5023
   sO   FE   1       0.1480   0.0000
   sO    K   1       0.3848   0.0310
   sO   Rb   1       0.4113   0.0223
   sO   Li   1       0.2493   0.2317
   sO   Zn   1       0.2460   0.1915
   sO HW_tip4pew   1       0.1480   0.0000
   sO OW_tip4pew   1       0.3062   0.6910
   sO HW_tip4p   1       0.1480   0.0000
   sO OW_tip4p   1       0.3057   0.6743
   sO HW_tip5p   1       0.1480   0.0000
   sO OW_tip5p   1       0.3040   0.6851
   sO HW_tip4pd   1       0.1480   0.0000
   sO OW_tip4pd   1       0.3062   0.8369
   sO   MW   1       0.1480   0.0000
   sO MCH3   1       0.1480   0.0000
   sO MNH3   1       0.1480   0.0000
   sO   c3   1       0.3180   0.5665
   sO   hc   1       0.2805   0.2146
   sO    c   1       0.3180   0.5023
   sO    o   1       0.2960   0.7849
   sO    n   1       0.3105   0.7062
   sO   h1   1       0.2716   0.2146
   sO   ca   1       0.3180   0.5023
   sO   ha   1       0.2780   0.2098
   sO   n3   1       0.3105   0.7062
   sO   hx   1       0.2460   0.2146
   sO   n4   1       0.3105   0.7062
   sO   hn   1       0.2014   0.2146
  sOB   Br   1       0.1480   0.0000
  sOB    C   1       0.3180   0.5023
  sOB   C6   1       0.3180   0.5023
  sOB   C5   1       0.3180   0.5023
  sOB   CA   1       0.3180   0.5023
  sOB   CB   1       0.3180   0.5023
  sOB   CC   1       0.3180   0.5023
  sOB   CK   1       0.3180   0.5023
  sOB   CM   1       0.3180   0.5023
  sOB   CN   1       0.3180   0.5023
  sOB   CQ   1       0.3180   0.5023
  sOB   CR   1       0.3180   0.5023
  sOB   CT   1       0.3180   0.5665
  sOB   C1   1       0.3180   0.5665
  sOB   C3   1       0.3180   0.5665
  sOB   C4   1       0.3180   0.5665
  sOB   C7   1       0.3180   0.5665
  sOB   C8   1       0.3180   0.5665
  sOB   C9   1       0.3180   0.5665
  sOB   CV   1       0.3180   0.5023
  sOB   CW   1       0.3180   0.5023
  sOB   C*   1       0.3180   0.5023
  sOB   C0   1       0.3006   1.1614
  sOB    F   1       0.3039   0.4230
  sOB    H   1       0.2014   0.2146
  sOB   HB   1       0.2014   0.2146
  sOB   HC   1       0.2805   0.2146
  sOB   H1   1       0.2716   0.2146
  sOB   H2   1       0.2627   0.2146
  sOB   H3   1       0.2537   0.2146
  sOB   HA   1       0.2780   0.2098
  sOB   H4   1       0.2735   0.2098
  sOB   H5   1       0.2691   0.2098
  sOB   HO   1       0.1480   0.0000
  sOB   HS   1       0.2014   0.2146
  sOB   HW   1       0.1480   0.0000
  sOB   HP   1       0.2460   0.2146
  sOB    I   1       0.3574   1.0832
  sOB   Cl   1       0.3680   0.5416
  sOB   Na   1       0.3144   0.0901
  sOB   IB   1       0.5934   0.5416
  sOB   MG   1       0.2186   1.6201
  sOB    N   1       0.3105   0.7062
  sOB   NA   1       0.3105   0.7062
  sOB   NB   1       0.3105   0.7062
  sOB   NC   1       0.3105   0.7062
  sOB   N2   1       0.3105   0.7062
  sOB   N3   1       0.3105   0.7062
  sOB   N*   1       0.3105   0.7062
  sOB    O   1       0.2960   0.7849
  sOB   OB   1       0.2960   0.7849
  sOB   OW   1       0.3055   0.6680
  sOB   OH   1       0.3013   0.7856
  sOB   O3   1       0.3013   0.7856
  sOB   OS   1       0.2980   0.7062
  sOB   O2   1       0.2960   0.7849
  sOB    P   1       0.3351   0.7660
  sOB    S   1       0.3262   0.8564
  sOB   SH   1       0.3262   0.8564
  sOB   CU   1       0.3180   0.5023
  sOB   FE   1       0.1480   0.0000
  sOB    K   1       0.3848   0.0310
  sOB   Rb   1       0.4113   0.0223
  sOB   Li   1       0.2493   0.2317
  sOB   Zn   1       0.2460   0.1915
  sOB HW_tip4pew   1       0.1480   0.0000
  sOB OW_tip4pew   1       0.3062   0.6910
  sOB HW_tip4p   1       0.1480   0.0000
  sOB OW_tip4p   1       0.3057   0.6743
  sOB HW_tip5p   1       0.1480   0.0000
  sOB OW_tip5p   1       0.3040   0.6851
  sOB HW_tip4pd   1       0.1480   0.0000
  sOB OW_tip4pd   1       0.3062   0.8369
  sOB   MW   1       0.1480   0.0000
  sOB MCH3   1       0.1480   0.0000
  sOB MNH3   1       0.1480   0.0000
  sOB   c3   1       0.3180   0.5665
  sOB   hc   1       0.2805   0.2146
  sOB    c   1       0.3180   0.5023
  sOB    o   1       0.2960   0.7849
  sOB    n   1       0.3105   0.7062
  sOB   h1   1       0.2716   0.2146
  sOB   ca   1       0.3180   0.5023
  sOB   ha   1       0.2780   0.2098
  sOB   n3   1       0.3105   0.7062
  sOB   hx   1       0.2460   0.2146
  sOB   n4   1       0.3105   0.7062
  sOB   hn   1       0.2014   0.2146
  sOW   Br   1       0.1575   0.0000
  sOW    C   1       0.3275   0.4275
  sOW   C6   1       0.3275   0.4275
  sOW   C5   1       0.3275   0.4275
  sOW   CA   1       0.3275   0.4275
  sOW   CB   1       0.3275   0.4275
  sOW   CC   1       0.3275   0.4275
  sOW   CK   1       0.3275   0.4275
  sOW   CM   1       0.3275   0.4275
  sOW   CN   1       0.3275   0.4275
  sOW   CQ   1       0.3275   0.4275
  sOW   CR   1       0.3275   0.4275
  sOW   CT   1       0.3275   0.4821
  sOW   C1   1       0.3275   0.4821
  sOW   C3   1       0.3275   0.4821
  sOW   C4   1       0.3275   0.4821
  sOW   C7   1       0.3275   0.4821
  sOW   C8   1       0.3275   0.4821
  sOW   C9   1       0.3275   0.4821
  sOW   CV   1       0.3275   0.4275
  sOW   CW   1       0.3275   0.4275
  sOW   C*   1       0.3275   0.4275
  sOW   C0   1       0.3102   0.9884
  sOW    F   1       0.3134   0.3600
  sOW    H   1       0.2110   0.1826
  sOW   HB   1       0.2110   0.1826
  sOW   HC   1       0.2900   0.1826
  sOW   H1   1       0.2811   0.1826
  sOW   H2   1       0.2722   0.1826
  sOW   H3   1       0.2633   0.1826
  sOW   HA   1       0.2875   0.1785
  sOW   H4   1       0.2831   0.1785
  sOW   H5   1       0.2786   0.1785
  sOW   HO   1       0.1575   0.0000
  sOW   HS   1       0.2110   0.1826
  sOW   HW   1       0.1575   0.0000
  sOW   HP   1       0.2555   0.1826
  sOW    I   1       0.3669   0.9219
  sOW   Cl   1       0.3776   0.4609
  sOW   Na   1       0.3240   0.0767
  sOW   IB   1       0.6030   0.4609
  sOW   MG   1       0.2281   1.3787
  sOW    N   1       0.3200   0.6010
  sOW   NA   1       0.3200   0.6010
  sOW   NB   1       0.3200   0.6010
  sOW   NC   1       0.3200   0.6010
  sOW   N2   1       0.3200   0.6010
  sOW   N3   1       0.3200   0.6010
  sOW   N*   1       0.3200   0.6010
  sOW    O   1       0.3055   0.6680
  sOW   OB   1       0.3055   0.6680
  sOW   OW   1       0.3151   0.5685
  sOW   OH   1       0.3109   0.6686
  sOW   O3   1       0.3109   0.6686
  sOW   OS   1       0.3075   0.6010
  sOW   O2   1       0.3055   0.6680
  sOW    P   1       0.3446   0.6519
  sOW    S   1       0.3357   0.7288
  sOW   SH   1       0.3357   0.7288
  sOW   CU   1       0.3275   0.4275
  sOW   FE   1       0.1575   0.0000
  sOW    K   1       0.3943   0.0264
  sOW   Rb   1       0.4209   0.0190
  sOW   Li   1       0.2588   0.1972
  sOW   Zn   1       0.2555   0.1630
  sOW HW_tip4pew   1       0.1575   0.0000
  sOW OW_tip4pew   1       0.3157   0.5880
  sOW HW_tip4p   1       0.1575   0.0000
  sOW OW_tip4p   1       0.3152   0.5739
  sOW HW_tip5p   1       0.1575   0.0000
  sOW OW_tip5p   1       0.3135   0.5830
  sOW HW_tip4pd   1       0.1575   0.0000
  sOW OW_tip4pd   1       0.3158   0.7122
  sOW   MW   1       0.1575   0.0000
  sOW MCH3   1       0.1575   0.0000
  sOW MNH3   1       0.1575   0.0000
  sOW   c3   1       0.3275   0.4821
  sOW   hc   1       0.2900   0.1826
  sOW    c   1       0.3275   0.4275
  sOW    o   1       0.3055   0.6680
  sOW    n   1       0.3200   0.6010
  sOW   h1   1       0.2811   0.1826
  sOW   ca   1       0.3275   0.4275
  sOW   ha   1       0.2875   0.1785
  sOW   n3   1       0.3200   0.6010
  sOW   hx   1       0.2555   0.1826
  sOW   n4   1       0.3200   0.6010
  sOW   hn   1       0.2110   0.1826
  sOH   Br   1       0.1533   0.0000
  sOH    C   1       0.3233   0.5028
  sOH   C6   1       0.3233   0.5028
  sOH   C5   1       0.3233   0.5028
  sOH   CA   1       0.3233   0.5028
  sOH   CB   1       0.3233   0.5028
  sOH   CC   1       0.3233   0.5028
  sOH   CK   1       0.3233   0.5028
  sOH   CM   1       0.3233   0.5028
  sOH   CN   1       0.3233   0.5028
  sOH   CQ   1       0.3233   0.5028
  sOH   CR   1       0.3233   0.5028
  sOH   CT   1       0.3233   0.5670
  sOH   C1   1       0.3233   0.5670
  sOH   C3   1       0.3233   0.5670
  sOH   C4   1       0.3233   0.5670
  sOH   C7   1       0.3233   0.5670
  sOH   C8   1       0.3233   0.5670
  sOH   C9   1       0.3233   0.5670
  sOH   CV   1       0.3233   0.5028
  sOH   CW   1       0.3233   0.5028
  sOH   C*   1       0.3233   0.5028
  sOH   C0   1       0.3059   1.1625
  sOH    F   1       0.3092   0.4234
  sOH    H   1       0.2068   0.2148
  sOH   HB   1       0.2068   0.2148
  sOH   HC   1       0.2858   0.2148
  sOH   H1   1       0.2769   0.2148
  sOH   H2   1       0.2680   0.2148
  sOH   H3   1       0.2591   0.2148
  sOH   HA   1       0.2833   0.2100
  sOH   H4   1       0.2789   0.2100
  sOH   H5   1       0.2744   0.2100
  sOH   HO   1       0.1533   0.0000
  sOH   HS   1       0.2068   0.2148
  sOH   HW   1       0.1533   0.0000
  sOH   HP   1       0.2513   0.2148
  sOH    I   1       0.3627   1.0843
  sOH   Cl   1       0.3734   0.5421
  sOH   Na   1       0.3197   0.0902
  sOH   IB   1       0.5988   0.5421
  sOH   MG   1       0.2239   1.6216
  sOH    N   1       0.3158   0.7069
  sOH   NA   1       0.3158   0.7069
  sOH   NB   1       0.3158   0.7069
  sOH   NC   1       0.3158   0.7069
  sOH   N2   1       0.3158   0.7069
  sOH   N3   1       0.3158   0.7069
  sOH   N*   1       0.3158   0.7069
  sOH    O   1       0.3013   0.7856
  sOH   OB   1       0.3013   0.7856
  sOH   OW   1       0.3109   0.6686
  sOH   OH   1       0.3066   0.7864
  sOH   O3   1       0.3066   0.7864
  sOH   OS   1       0.3033   0.7069
  sOH   O2   1       0.3013   0.7856
  sOH    P   1       0.3404   0.7667
  sOH    S   1       0.3315   0.8572
  sOH   SH   1       0.3315   0.8572
  sOH   CU   1       0.3233   0.5028
  sOH   FE   1       0.1533   0.0000
  sOH    K   1       0.3901   0.0310
  sOH   Rb   1       0.4167   0.0224
  sOH   Li   1       0.2546   0.2319
  sOH   Zn   1       0.2513   0.1917
  sOH HW_tip4pew   1       0.1533   0.0000
  sOH OW_tip4pew   1       0.3115   0.6916
  sOH HW_tip4p   1       0.1533   0.0000
  sOH OW_tip4p   1       0.3110   0.6749
  sOH HW_tip5p   1       0.1533   0.0000
  sOH OW_tip5p   1       0.3093   0.6857
  sOH HW_tip4pd   1       0.1533   0.0000
  sOH OW_tip4pd   1       0.3116   0.8377
  sOH   MW   1       0.1533   0.0000
  sOH MCH3   1       0.1533   0.0000
  sOH MNH3   1       0.1533   0.0000
  sOH   c3   1       0.3233   0.5670
  sOH   hc   1       0.2858   0.2148
  sOH    c   1       0.3233   0.5028
  sOH    o   1       0.3013   0.7856
  sOH    n   1       0.3158   0.7069
  sOH   h1   1       0.2769   0.2148
  sOH   ca   1       0.3233   0.5028
  sOH   ha   1       0.2833   0.2100
  sOH   n3   1       0.3158   0.7069
  sOH   hx   1       0.2513   0.2148
  sOH   n4   1       0.3158   0.7069
  sOH   hn   1       0.2068   0.2148
  sO3   Br   1       0.1533   0.0000
  sO3    C   1       0.3233   0.5028
  sO3   C6   1       0.3233   0.5028
  sO3   C5   1       0.3233   0.5028
  sO3   CA   1       0.3233   0.5028
  sO3   CB   1       0.3233   0.5028
  sO3   CC   1       0.3233   0.5028
  sO3   CK   1       0.3233   0.5028
  sO3   CM   1       0.3233   0.5028
  sO3   CN   1       0.3233   0.5028
  sO3   CQ   1       0.3233   0.5028
  sO3   CR   1       0.3233   0.5028
  sO3   CT   1       0.3233   0.5670
  sO3   C1   1       0.3233   0.5670
  sO3   C3   1       0.3233   0.5670
  sO3   C4   1       0.3233   0.5670
  sO3   C7   1       0.3233   0.5670
  sO3   C8   1       0.3233   0.5670
  sO3   C9   1       0.3233   0.5670
  sO3   CV   1       0.3233   0.5028
  sO3   CW   1       0.3233   0.5028
  sO3   C*   1       0.3233   0.5028
  sO3   C0   1       0.3059   1.1625
  sO3    F   1       0.3092   0.4234
  sO3    H   1       0.2068   0.2148
  sO3   HB   1       0.2068   0.2148
  sO3   HC   1       0.2858   0.2148
  sO3   H1   1       0.2769   0.2148
  sO3   H2   1       0.2680   0.2148
  sO3   H3   1       0.2591   0.2148
  sO3   HA   1       0.2833   0.2100
  sO3   H4   1       0.2789   0.2100
  sO3   H5   1       0.2744   0.2100
  sO3   HO   1       0.1533   0.0000
  sO3   HS   1       0.2068   0.2148
  sO3   HW   1       0.1533   0.0000
  sO3   HP   1       0.2513   0.2148
  sO3    I   1       0.3627   1.0843
  sO3   Cl   1       0.3734   0.5421
  sO3   Na   1       0.3197   0.0902
  sO3   IB   1       0.5988   0.5421
  sO3   MG   1       0.2239   1.6216
  sO3    N   1       0.3158   0.7069
  sO3   NA   1       0.3158   0.7069
  sO3   NB   1       0.3158   0.7069
  sO3   NC   1       0.3158   0.7069
  sO3   N2   1       0.3158   0.7069
  sO3   N3   1       0.3158   0.7069
  sO3   N*   1       0.3158   0.7069
  sO3    O   1       0.3013   0.7856
  sO3   OB   1       0.3013   0.7856
  sO3   OW   1       0.3109   0.6686
  sO3   OH   1       0.3066   0.7864
  sO3   O3   1       0.3066   0.7864
  sO3   OS   1       0.3033   0.7069
  sO3   O2   1       0.3013   0.7856
  sO3    P   1       0.3404   0.7667
  sO3    S   1       0.3315   0.8572
  sO3   SH   1       0.3315   0.8572
  sO3   CU   1       0.3233   0.5028
  sO3   FE   1       0.1533   0.0000
  sO3    K   1       0.3901   0.0310
  sO3   Rb   1       0.4167   0.0224
  sO3   Li   1       0.2546   0.2319
  sO3   Zn   1       0.2513   0.1917
  sO3 HW_tip4pew   1       0.1533   0.0000
  sO3 OW_tip4pew   1       0.3115   0.6916
  sO3 HW_tip4p   1       0.1533   0.0000
  sO3 OW_tip4p   1       0.3110   0.6749
  sO3 HW_tip5p   1       0.1533   0.0000
  sO3 OW_tip5p   1       0.3093   0.6857
  sO3 HW_tip4pd   1       0.1533   0.0000
  sO3 OW_tip4pd   1       0.3116   0.8377
  sO3   MW   1       0.1533   0.0000
  sO3 MCH3   1       0.1533   0.0000
  sO3 MNH3   1       0.1533   0.0000
  sO3   c3   1       0.3233   0.5670
  sO3   hc   1       0.2858   0.2148
  sO3    c   1       0.3233   0.5028
  sO3    o   1       0.3013   0.7856
  sO3    n   1       0.3158   0.7069
  sO3   h1   1       0.2769   0.2148
  sO3   ca   1       0.3233   0.5028
  sO3   ha   1       0.2833   0.2100
  sO3   n3   1       0.3158   0.7069
  sO3   hx   1       0.2513   0.2148
  sO3   n4   1       0.3158   0.7069
  sO3   hn   1       0.2068   0.2148
  sOS   Br   1       0.1500   0.0000
  sOS    C   1       0.3200   0.4519
  sOS   C6   1       0.3200   0.4519
  sOS   C5   1       0.3200   0.4519
  sOS   CA   1       0.3200   0.4519
  sOS   CB   1       0.3200   0.4519
  sOS   CC   1       0.3200   0.4519
  sOS   CK   1       0.3200   0.4519
  sOS   CM   1       0.3200   0.4519
  sOS   CN   1       0.3200   0.4519
  sOS   CQ   1       0.3200   0.4519
  sOS   CR   1       0.3200   0.4519
  sOS   CT   1       0.3200   0.5097
  sOS   C1   1       0.3200   0.5097
  sOS   C3   1       0.3200   0.5097
  sOS   C4   1       0.3200   0.5097
  sOS   C7   1       0.3200   0.5097
  sOS   C8   1       0.3200   0.5097
  sOS   C9   1       0.3200   0.5097
  sOS   CV   1       0.3200   0.4519
  sOS   CW   1       0.3200   0.4519
  sOS   C*   1       0.3200   0.4519
  sOS   C0   1       0.3026   1.0449
  sOS    F   1       0.3059   0.3806
  sOS    H   1       0.2035   0.1931
  sOS   HB   1       0.2035   0.1931
  sOS   HC   1       0.2825   0.1931
  sOS   H1   1       0.2736   0.1931
  sOS   H2   1       0.2647   0.1931
  sOS   H3   1       0.2558   0.1931
  sOS   HA   1       0.2800   0.1887
  sOS   H4   1       0.2755   0.1887
  sOS   H5   1       0.2711   0.1887
  sOS   HO   1       0.1500   0.0000
  sOS   HS   1       0.2035   0.1931
  sOS   HW   1       0.1500   0.0000
  sOS   HP   1       0.2480   0.1931
  sOS    I   1       0.3594   0.9746
  sOS   Cl   1       0.3701   0.4873
  sOS   Na   1       0.3164   0.0811
  sOS   IB   1       0.5954   0.4873
  sOS   MG   1       0.2206   1.4576
  sOS    N   1       0.3125   0.6354
  sOS   NA   1       0.3125   0.6354
  sOS   NB   1       0.3125   0.6354
  sOS   NC   1       0.3125   0.6354
  sOS   N2   1       0.3125   0.6354
  sOS   N3   1       0.3125   0.6354
  sOS   N*   1       0.3125   0.6354
  sOS    O   1       0.2980   0.7062
  sOS   OB   1       0.2980   0.7062
  sOS   OW   1       0.3075   0.6010
  sOS   OH   1       0.3033   0.7069
  sOS   O3   1       0.3033   0.7069
  sOS   OS   1       0.3000   0.6354
  sOS   O2   1       0.2980   0.7062
  sOS    P   1       0.3371   0.6892
  sOS    S   1       0.3282   0.7705
  sOS   SH   1       0.3282   0.7705
  sOS   CU   1       0.3200   0.4519
  sOS   FE   1       0.1500   0.0000
  sOS    K   1       0.3868   0.0279
  sOS   Rb   1       0.4133   0.0201
  sOS   Li   1       0.2513   0.2085
  sOS   Zn   1       0.2480   0.1723
  sOS HW_tip4pew   1       0.1500   0.0000
  sOS OW_tip4pew   1       0.3082   0.6217
  sOS HW_tip4p   1       0.1500   0.0000
  sOS OW_tip4p   1       0.3077   0.6067
  sOS HW_tip5p   1       0.1500   0.0000
  sOS OW_tip5p   1       0.3060   0.6164
  sOS HW_tip4pd   1       0.1500   0.0000
  sOS OW_tip4pd   1       0.3083   0.7530
  sOS   MW   1       0.1500   0.0000
  sOS MCH3   1       0.1500   0.0000
  sOS MNH3   1       0.1500   0.0000
  sOS   c3   1       0.3200   0.5097
  sOS   hc   1       0.2825   0.1931
  sOS    c   1       0.3200   0.4519
  sOS    o   1       0.2980   0.7062
  sOS    n   1       0.3125   0.6354
  sOS   h1   1       0.2736   0.1931
  sOS   ca   1       0.3200   0.4519
  sOS   ha   1       0.2800   0.1887
  sOS   n3   1       0.3125   0.6354
  sOS   hx   1       0.2480   0.1931
  sOS   n4   1       0.3125   0.6354
  sOS   hn   1       0.2035   0.1931
  sO2   Br   1       0.1480   0.0000
  sO2    C   1       0.3180   0.5023
  sO2   C6   1       0.3180   0.5023
  sO2   C5   1       0.3180   0.5023
  sO2   CA   1       0.3180   0.5023
  sO2   CB   1       0.3180   0.5023
  sO2   CC   1       0.3180   0.5023
  sO2   CK   1       0.3180   0.5023
  sO2   CM   1       0.3180   0.5023
  sO2   CN   1       0.3180   0.5023
  sO2   CQ   1       0.3180   0.5023
  sO2   CR   1       0.3180   0.5023
  sO2   CT   1       0.3180   0.5665
  sO2   C1   1       0.3180   0.5665
  sO2   C3   1       0.3180   0.5665
  sO2   C4   1       0.3180   0.5665
  sO2   C7   1       0.3180   0.5665
  sO2   C8   1       0.3180   0.5665
  sO2   C9   1       0.3180   0.5665
  sO2   CV   1       0.3180   0.5023
  sO2   CW   1       0.3180   0.5023
  sO2   C*   1       0.3180   0.5023
  sO2   C0   1       0.3006   1.1614
  sO2    F   1       0.3039   0.4230
  sO2    H   1       0.2014   0.2146
  sO2   HB   1       0.2014   0.2146
  sO2   HC   1       0.2805   0.2146
  sO2   H1   1       0.2716   0.2146
  sO2   H2   1       0.2627   0.2146
  sO2   H3   1       0.2537   0.2146
  sO2   HA   1       0.2780   0.2098
  sO2   H4   1       0.2735   0.2098
  sO2   H5   1       0.2691   0.2098
  sO2   HO   1       0.1480   0.0000
  sO2   HS   1       0.2014   0.2146
  sO2   HW   1       0.1480   0.0000
  sO2   HP   1       0.2460   0.2146
  sO2    I   1       0.3574   1.0832
  sO2   Cl   1       0.3680   0.5416
  sO2   Na   1       0.3144   0.0901
  sO2   IB   1       0.5934   0.5416
  sO2   MG   1       0.2186   1.6201
  sO2    N   1       0.3105   0.7062
  sO2   NA   1       0.3105   0.7062
  sO2   NB   1       0.3105   0.7062
  sO2   NC   1       0.3105   0.7062
  sO2   N2   1       0.3105   0.7062
  sO2   N3   1       0.3105   0.7062
  sO2   N*   1       0.3105   0.7062
  sO2    O   1       0.2960   0.7849
  sO2   OB   1       0.2960   0.7849
  sO2   OW   1       0.3055   0.6680
  sO2   OH   1       0.3013   0.7856
  sO2   O3   1       0.3013   0.7856
  sO2   OS   1       0.2980   0.7062
  sO2   O2   1       0.2960   0.7849
  sO2    P   1       0.3351   0.7660
  sO2    S   1       0.3262   0.8564
  sO2   SH   1       0.3262   0.8564
  sO2   CU   1       0.3180   0.5023
  sO2   FE   1       0.1480   0.0000
  sO2    K   1       0.3848   0.0310
  sO2   Rb   1       0.4113   0.0223
  sO2   Li   1       0.2493   0.2317
  sO2   Zn   1       0.2460   0.1915
  sO2 HW_tip4pew   1       0.1480   0.0000
  sO2 OW_tip4pew   1       0.3062   0.6910
  sO2 HW_tip4p   1       0.1480   0.0000
  sO2 OW_tip4p   1       0.3057   0.6743
  sO2 HW_tip5p   1       0.1480   0.0000
  sO2 OW_tip5p   1       0.3040   0.6851
  sO2 HW_tip4pd   1       0.1480   0.0000
  sO2 OW_tip4pd   1       0.3062   0.8369
  sO2   MW   1       0.1480   0.0000
  sO2 MCH3   1       0.1480   0.0000
  sO2 MNH3   1       0.1480   0.0000
  sO2   c3   1       0.3180   0.5665
  sO2   hc   1       0.2805   0.2146
  sO2    c   1       0.3180   0.5023
  sO2    o   1       0.2960   0.7849
  sO2    n   1       0.3105   0.7062
  sO2   h1   1       0.2716   0.2146
  sO2   ca   1       0.3180   0.5023
  sO2   ha   1       0.2780   0.2098
  sO2   n3   1       0.3105   0.7062
  sO2   hx   1       0.2460   0.2146
  sO2   n4   1       0.3105   0.7062
  sO2   hn   1       0.2014   0.2146
   sP   Br   1       0.1871   0.0000
   sP    C   1       0.3571   0.4902
   sP   C6   1       0.3571   0.4902
   sP   C5   1       0.3571   0.4902
   sP   CA   1       0.3571   0.4902
   sP   CB   1       0.3571   0.4902
   sP   CC   1       0.3571   0.4902
   sP   CK   1       0.3571   0.4902
   sP   CM   1       0.3571   0.4902
   sP   CN   1       0.3571   0.4902
   sP   CQ   1       0.3571   0.4902
   sP   CR   1       0.3571   0.4902
   sP   CT   1       0.3571   0.5528
   sP   C1   1       0.3571   0.5528
   sP   C3   1       0.3571   0.5528
   sP   C4   1       0.3571   0.5528
   sP   C7   1       0.3571   0.5528
   sP   C8   1       0.3571   0.5528
   sP   C9   1       0.3571   0.5528
   sP   CV   1       0.3571   0.4902
   sP   CW   1       0.3571   0.4902
   sP   C*   1       0.3571   0.4902
   sP   C0   1       0.3397   1.1334
   sP    F   1       0.3430   0.4128
   sP    H   1       0.2405   0.2094
   sP   HB   1       0.2405   0.2094
   sP   HC   1       0.3196   0.2094
   sP   H1   1       0.3107   0.2094
   sP   H2   1       0.3017   0.2094
   sP   H3   1       0.2928   0.2094
   sP   HA   1       0.3171   0.2047
   sP   H4   1       0.3126   0.2047
   sP   H5   1       0.3082   0.2047
   sP   HO   1       0.1871   0.0000
   sP   HS   1       0.2405   0.2094
   sP   HW   1       0.1871   0.0000
   sP   HP   1       0.2851   0.2094
   sP    I   1       0.3964   1.0571
   sP   Cl   1       0.4071   0.5286
   sP   Na   1       0.3535   0.0880
   sP   IB   1       0.6325   0.5286
   sP   MG   1       0.2577   1.5810
   sP    N   1       0.3496   0.6892
   sP   NA   1       0.3496   0.6892
   sP   NB   1       0.3496   0.6892
   sP   NC   1       0.3496   0.6892
   sP   N2   1       0.3496   0.6892
   sP   N3   1       0.3496   0.6892
   sP   N*   1       0.3496   0.6892
   sP    O   1       0.3351   0.7660
   sP   OB   1       0.3351   0.7660
   sP   OW   1       0.3446   0.6519
   sP   OH   1       0.3404   0.7667
   sP   O3   1       0.3404   0.7667
   sP   OS   1       0.3371   0.6892
   sP   O2   1       0.3351   0.7660
   sP    P   1       0.3742   0.7475
   sP    S   1       0.3653   0.8357
   sP   SH   1       0.3653   0.8357
   sP   CU   1       0.3571   0.4902
   sP   FE   1       0.1871   0.0000
   sP    K   1       0.4239   0.0303
   sP   Rb   1       0.4504   0.0218
   sP   Li   1       0.2884   0.2261
   sP   Zn   1       0.2851   0.1869
   sP HW_tip4pew   1       0.1871   0.0000
   sP OW_tip4pew   1       0.3453   0.6743
   sP HW_tip4p   1       0.1871   0.0000
   sP OW_tip4p   1       0.3448   0.6581
   sP HW_tip5p   1       0.1871   0.0000
   sP OW_tip5p   1       0.3431   0.6686
   sP HW_tip4pd   1       0.1871   0.0000
   sP OW_tip4pd   1       0.3453   0.8167
   sP   MW   1       0.1871   0.0000
   sP MCH3   1       0.1871   0.0000
   sP MNH3   1       0.1871   0.0000
   sP   c3   1       0.3571   0.5528
   sP   hc   1       0.3196   0.2094
   sP    c   1       0.3571   0.4902
   sP    o   1       0.3351   0.7660
   sP    n   1       0.3496   0.6892
   sP   h1   1       0.3107   0.2094
   sP   ca   1       0.3571   0.4902
   sP   ha   1       0.3171   0.2047
   sP   n3   1       0.3496   0.6892
   sP   hx   1       0.2851   0.2094
   sP   n4   1       0.3496   0.6892
   sP   hn   1       0.2405   0.2094
   sS   Br   1       0.1782   0.0000
   sS    C   1       0.3482   0.5480
   sS   C6   1       0.3482   0.5480
   sS   C5   1       0.3482   0.5480
   sS   CA   1       0.3482   0.5480
   sS   CB   1       0.3482   0.5480
   sS   CC   1       0.3482   0.5480
   sS   CK   1       0.3482   0.5480
   sS   CM   1       0.3482   0.5480
   sS   CN   1       0.3482   0.5480
   sS   CQ   1       0.3482   0.5480
   sS   CR   1       0.3482   0.5480
   sS   CT   1       0.3482   0.6181
   sS   C1   1       0.3482   0.6181
   sS   C3   1       0.3482   0.6181
   sS   C4   1       0.3482   0.6181
   sS   C7   1       0.3482   0.6181
   sS   C8   1       0.3482   0.6181
   sS   C9   1       0.3482   0.6181
   sS   CV   1       0.3482   0.5480
   sS   CW   1       0.3482   0.5480
   sS   C*   1       0.3482   0.5480
   sS   C0   1       0.3308   1.2672
   sS    F   1       0.3341   0.4615
   sS    H   1       0.2316   0.2342
   sS   HB   1       0.2316   0.2342
   sS   HC   1       0.3107   0.2342
   sS   H1   1       0.3017   0.2342
   sS   H2   1       0.2928   0.2342
   sS   H3   1       0.2839   0.2342
   sS   HA   1       0.3082   0.2289
   sS   H4   1       0.3037   0.2289
   sS   H5   1       0.2993   0.2289
   sS   HO   1       0.1782   0.0000
   sS   HS   1       0.2316   0.2342
   sS   HW   1       0.1782   0.0000
   sS   HP   1       0.2762   0.2342
   sS    I   1       0.3875   1.1819
   sS   Cl   1       0.3982   0.5910
   sS   Na   1       0.3446   0.0984
   sS   IB   1       0.6236   0.5910
   sS   MG   1       0.2488   1.7676
   sS    N   1       0.3407   0.7705
   sS   NA   1       0.3407   0.7705
   sS   NB   1       0.3407   0.7705
   sS   NC   1       0.3407   0.7705
   sS   N2   1       0.3407   0.7705
   sS   N3   1       0.3407   0.7705
   sS   N*   1       0.3407   0.7705
   sS    O   1       0.3262   0.8564
   sS   OB   1       0.3262   0.8564
   sS   OW   1       0.3357   0.7288
   sS   OH   1       0.3315   0.8572
   sS   O3   1       0.3315   0.8572
   sS   OS   1       0.3282   0.7705
   sS   O2   1       0.3262   0.8564
   sS    P   1       0.3653   0.8357
   sS    S   1       0.3564   0.9344
   sS   SH   1       0.3564   0.9344
   sS   CU   1       0.3482   0.5480
   sS   FE   1       0.1782   0.0000
   sS    K   1       0.4150   0.0338
   sS   Rb   1       0.4415   0.0244
   sS   Li   1       0.2795   0.2528
   sS   Zn   1       0.2762   0.2089
   sS HW_tip4pew   1       0.1782   0.0000
   sS OW_tip4pew   1       0.3364   0.7539
   sS HW_tip4p   1       0.1782   0.0000
   sS OW_tip4p   1       0.3359   0.7357
   sS HW_tip5p   1       0.1782   0.0000
   sS OW_tip5p   1       0.3342   0.7475
   sS HW_tip4pd   1       0.1782   0.0000
   sS OW_tip4pd   1       0.3364   0.9131
   sS   MW   1       0.1782   0.0000
   sS MCH3   1       0.1782   0.0000
   sS MNH3   1       0.1782   0.0000
   sS   c3   1       0.3482   0.6181
   sS   hc   1       0.3107   0.2342
   sS    c   1       0.3482   0.5480
   sS    o   1       0.3262   0.8564
   sS    n   1       0.3407   0.7705
   sS   h1   1       0.3017   0.2342
   sS   ca   1       0.3482   0.5480
   sS   ha   1       0.3082   0.2289
   sS   n3   1       0.3407   0.7705
   sS   hx   1       0.2762   0.2342
   sS   n4   1       0.3407   0.7705
   sS   hn   1       0.2316   0.2342
  sSH   Br   1       0.1782   0.0000
  sSH    C   1       0.3482   0.5480
  sSH   C6   1       0.3482   0.5480
  sSH   C5   1       0.3482   0.5480
  sSH   CA   1       0.3482   0.5480
  sSH   CB   1       0.3482   0.5480
  sSH   CC   1       0.3482   0.5480
  sSH   CK   1       0.3482   0.5480
  sSH   CM   1       0.3482   0.5480
  sSH   CN   1       0.3482   0.5480
  sSH   CQ   1       0.3482   0.5480
  sSH   CR   1       0.3482   0.5480
  sSH   CT   1       0.3482   0.6181
  sSH   C1   1       0.3482   0.6181
  sSH   C3   1       0.3482   0.6181
  sSH   C4   1       0.3482   0.6181
  sSH   C7   1       0.3482   0.6181
  sSH   C8   1       0.3482   0.6181
  sSH   C9   1       0.3482   0.6181
  sSH   CV   1       0.3482   0.5480
  sSH   CW   1       0.3482   0.5480
  sSH   C*   1       0.3482   0.5480
  sSH   C0   1       0.3308   1.2672
  sSH    F   1       0.3341   0.4615
  sSH    H   1       0.2316   0.2342
  sSH   HB   1       0.2316   0.2342
  sSH   HC   1       0.3107   0.2342
  sSH   H1   1       0.3017   0.2342
  sSH   H2   1       0.2928   0.2342
  sSH   H3   1       0.2839   0.2342
  sSH   HA   1       0.3082   0.2289
  sSH   H4   1       0.3037   0.2289
  sSH   H5   1       0.2993   0.2289
  sSH   HO   1       0.1782   0.0000
  sSH   HS   1       0.2316   0.2342
  sSH   HW   1       0.1782   0.0000
  sSH   HP   1       0.2762   0.2342
  sSH    I   1       0.3875   1.1819
  sSH   Cl   1       0.3982   0.5910
  sSH   Na   1       0.3446   0.0984
  sSH   IB   1       0.6236   0.5910
  sSH   MG   1       0.2488   1.7676
  sSH    N   1       0.3407   0.7705
  sSH   NA   1       0.3407   0.7705
  sSH   NB   1       0.3407   0.7705
  sSH   NC   1       0.3407   0.7705
  sSH   N2   1       0.3407   0.7705
  sSH   N3   1       0.3407   0.7705
  sSH   N*   1       0.3407   0.7705
  sSH    O   1       0.3262   0.8564
  sSH   OB   1       0.3262   0.8564
  sSH   OW   1       0.3357   0.7288
  sSH   OH   1       0.3315   0.8572
  sSH   O3   1       0.3315   0.8572
  sSH   OS   1       0.3282   0.7705
  sSH   O2   1       0.3262   0.8564
  sSH    P   1       0.3653   0.8357
  sSH    S   1       0.3564   0.9344
  sSH   SH   1       0.3564   0.9344
  sSH   CU   1       0.3482   0.5480
  sSH   FE   1       0.1782   0.0000
  sSH    K   1       0.4150   0.0338
  sSH   Rb   1       0.4415   0.0244
  sSH   Li   1       0.2795   0.2528
  sSH   Zn   1       0.2762   0.2089
  sSH HW_tip4pew   1       0.1782   0.0000
  sSH OW_tip4pew   1       0.3364   0.7539
  sSH HW_tip4p   1       0.1782   0.0000
  sSH OW_tip4p   1       0.3359   0.7357
  sSH HW_tip5p   1       0.1782   0.0000
  sSH OW_tip5p   1       0.3342   0.7475
  sSH HW_tip4pd   1       0.1782   0.0000
  sSH OW_tip4pd   1       0.3364   0.9131
  sSH   MW   1       0.1782   0.0000
  sSH MCH3   1       0.1782   0.0000
  sSH MNH3   1       0.1782   0.0000
  sSH   c3   1       0.3482   0.6181
  sSH   hc   1       0.3107   0.2342
  sSH    c   1       0.3482   0.5480
  sSH    o   1       0.3262   0.8564
  sSH    n   1       0.3407   0.7705
  sSH   h1   1       0.3017   0.2342
  sSH   ca   1       0.3482   0.5480
  sSH   ha   1       0.3082   0.2289
  sSH   n3   1       0.3407   0.7705
  sSH   hx   1       0.2762   0.2342
  sSH   n4   1       0.3407   0.7705
  sSH   hn   1       0.2316   0.2342
  sCU   Br   1       0.1700   0.0000
  sCU    C   1       0.3400   0.3214
  sCU   C6   1       0.3400   0.3214
  sCU   C5   1       0.3400   0.3214
  sCU   CA   1       0.3400   0.3214
  sCU   CB   1       0.3400   0.3214
  sCU   CC   1       0.3400   0.3214
  sCU   CK   1       0.3400   0.3214
  sCU   CM   1       0.3400   0.3214
  sCU   CN   1       0.3400   0.3214
  sCU   CQ   1       0.3400   0.3214
  sCU   CR   1       0.3400   0.3214
  sCU   CT   1       0.3400   0.3625
  sCU   C1   1       0.3400   0.3625
  sCU   C3   1       0.3400   0.3625
  sCU   C4   1       0.3400   0.3625
  sCU   C7   1       0.3400   0.3625
  sCU   C8   1       0.3400   0.3625
  sCU   C9   1       0.3400   0.3625
  sCU   CV   1       0.3400   0.3214
  sCU   CW   1       0.3400   0.3214
  sCU   C*   1       0.3400   0.3214
  sCU   C0   1       0.3226   0.7432
  sCU    F   1       0.3259   0.2707
  sCU    H   1       0.2234   0.1373
  sCU   HB   1       0.2234   0.1373
  sCU   HC   1       0.3025   0.1373
  sCU   H1   1       0.2936   0.1373
  sCU   H2   1       0.2846   0.1373
  sCU   H3   1       0.2757   0.1373
  sCU   HA   1       0.3000   0.1342
  sCU   H4   1       0.2955   0.1342
  sCU   H5   1       0.2911   0.1342
  sCU   HO   1       0.1700   0.0000
  sCU   HS   1       0.2234   0.1373
  sCU   HW   1       0.1700   0.0000
  sCU   HP   1       0.2680   0.1373
  sCU    I   1       0.3793   0.6932
  sCU   Cl   1       0.3900   0.3466
  sCU   Na   1       0.3364   0.0577
  sCU   IB   1       0.6154   0.3466
  sCU   MG   1       0.2406   1.0367
  sCU    N   1       0.3325   0.4519
  sCU   NA   1       0.3325   0.4519
  sCU   NB   1       0.3325   0.4519
  sCU   NC   1       0.3325   0.4519
  sCU   N2   1       0.3325   0.4519
  sCU   N3   1       0.3325   0.4519
  sCU   N*   1       0.3325   0.4519
  sCU    O   1       0.3180   0.5023
  sCU   OB   1       0.3180   0.5023
  sCU   OW   1       0.3275   0.4275
  sCU   OH   1       0.3233   0.5028
  sCU   O3   1       0.3233   0.5028
  sCU   OS   1       0.3200   0.4519
  sCU   O2   1       0.3180   0.5023
  sCU    P   1       0.3571   0.4902
  sCU    S   1       0.3482   0.5480
  sCU   SH   1       0.3482   0.5480
  sCU   CU   1       0.3400   0.3214
  sCU   FE   1       0.1700   0.0000
  sCU    K   1       0.4068   0.0199
  sCU   Rb   1       0.4333   0.0143
  sCU   Li   1       0.2713   0.1483
  sCU   Zn   1       0.2680   0.1225
  sCU HW_tip4pew   1       0.1700   0.0000
  sCU OW_tip4pew   1       0.3282   0.4422
  sCU HW_tip4p   1       0.1700   0.0000
  sCU OW_tip4p   1       0.3277   0.4315
  sCU HW_tip5p   1       0.1700   0.0000
  sCU OW_tip5p   1       0.3260   0.4384
  sCU HW_tip4pd   1       0.1700   0.0000
  sCU OW_tip4pd   1       0.3282   0.5356
  sCU   MW   1       0.1700   0.0000
  sCU MCH3   1       0.1700   0.0000
  sCU MNH3   1       0.1700   0.0000
  sCU   c3   1       0.3400   0.3625
  sCU   hc   1       0.3025   0.1373
  sCU    c   1       0.3400   0.3214
  sCU    o   1       0.3180   0.5023
  sCU    n   1       0.3325   0.4519
  sCU   h1   1       0.2936   0.1373
  sCU   ca   1       0.3400   0.3214
  sCU   ha   1       0.3000   0.1342
  sCU   n3   1       0.3325   0.4519
  sCU   hx   1       0.2680   0.1373
  sCU   n4   1       0.3325   0.4519
  sCU   hn   1       0.2234   0.1373
  sFE   Br   1       0.0000   0.0000
  sFE    C   1       0.1700   0.0000
  sFE   C6   1       0.1700   0.0000
  sFE   C5   1       0.1700   0.0000
  sFE   CA   1       0.1700   0.0000
  sFE   CB   1       0.1700   0.0000
  sFE   CC   1       0.1700   0.0000
  sFE   CK   1       0.1700   0.0000
  sFE   CM   1       0.1700   0.0000
  sFE   CN   1       0.1700   0.0000
  sFE   CQ   1       0.1700   0.0000
  sFE   CR   1       0.1700   0.0000
  sFE   CT   1       0.1700   0.0000
  sFE   C1   1       0.1700   0.0000
  sFE   C3   1       0.1700   0.0000
  sFE   C4   1       0.1700   0.0000
  sFE   C7   1       0.1700   0.0000
  sFE   C8   1       0.1700   0.0000
  sFE   C9   1       0.1700   0.0000
  sFE   CV   1       0.1700   0.0000
  sFE   CW   1       0.1700   0.0000
  sFE   C*   1       0.1700   0.0000
  sFE   C0   1       0.1526   0.0000
  sFE    F   1       0.1559   0.0000
  sFE    H   1       0.0535   0.0000
  sFE   HB   1       0.0535   0.0000
  sFE   HC   1       0.1325   0.0000
  sFE   H1   1       0.1236   0.0000
  sFE   H2   1       0.1147   0.0000
  sFE   H3   1       0.1057   0.0000
  sFE   HA   1       0.1300   0.0000
  sFE   H4   1       0.1255   0.0000
  sFE   H5   1       0.1211   0.0000
  sFE   HO   1       0.0000   0.0000
  sFE   HS   1       0.0535   0.0000
  sFE   HW   1       0.0000   0.0000
  sFE   HP   1       0.0980   0.0000
  sFE    I   1       0.2094   0.0000
  sFE   Cl   1       0.2201   0.0000
  sFE   Na   1       0.1664   0.0000
  sFE   IB   1       0.4454   0.0000
  sFE   MG   1       0.0706   0.0000
  sFE    N   1       0.1625   0.0000
  sFE   NA   1       0.1625   0.0000
  sFE   NB   1       0.1625   0.0000
  sFE   NC   1       0.1625   0.0000
  sFE   N2   1       0.1625   0.0000
  sFE   N3   1       0.1625   0.0000
  sFE   N*   1       0.1625   0.0000
  sFE    O   1       0.1480   0.0000
  sFE   OB   1       0.1480   0.0000
  sFE   OW   1       0.1575   0.0000
  sFE   OH   1       0.1533   0.0000
  sFE   O3   1       0.1533   0.0000
  sFE   OS   1       0.1500   0.0000
  sFE   O2   1       0.1480   0.0000
  sFE    P   1       0.1871   0.0000
  sFE    S   1       0.1782   0.0000
  sFE   SH   1       0.1782   0.0000
  sFE   CU   1       0.1700   0.0000
  sFE   FE   1       0.0000   0.0000
  sFE    K   1       0.2368   0.0000
  sFE   Rb   1       0.2633   0.0000
  sFE   Li   1       0.1013   0.0000
  sFE   Zn   1       0.0980   0.0000
  sFE HW_tip4pew   1       0.0000   0.0000
  sFE OW_tip4pew   1       0.1582   0.0000
  sFE HW_tip4p   1       0.0000   0.0000
  sFE OW_tip4p   1       0.1577   0.0000
  sFE HW_tip5p   1       0.0000   0.0000
  sFE OW_tip5p   1       0.1560   0.0000
  sFE HW_tip4pd   1       0.0000   0.0000
  sFE OW_tip4pd   1       0.1583   0.0000
  sFE   MW   1       0.0000   0.0000
  sFE MCH3   1       0.0000   0.0000
  sFE MNH3   1       0.0000   0.0000
  sFE   c3   1       0.1700   0.0000
  sFE   hc   1       0.1325   0.0000
  sFE    c   1       0.1700   0.0000
  sFE    o   1       0.1480   0.0000
  sFE    n   1       0.1625   0.0000
  sFE   h1   1       0.1236   0.0000
  sFE   ca   1       0.1700   0.0000
  sFE   ha   1       0.1300   0.0000
  sFE   n3   1       0.1625   0.0000
  sFE   hx   1       0.0980   0.0000
  sFE   n4   1       0.1625   0.0000
  sFE   hn   1       0.0535   0.0000
   sK   Br   1       0.2368   0.0000
   sK    C   1       0.4068   0.0199
   sK   C6   1       0.4068   0.0199
   sK   C5   1       0.4068   0.0199
   sK   CA   1       0.4068   0.0199
   sK   CB   1       0.4068   0.0199
   sK   CC   1       0.4068   0.0199
   sK   CK   1       0.4068   0.0199
   sK   CM   1       0.4068   0.0199
   sK   CN   1       0.4068   0.0199
   sK   CQ   1       0.4068   0.0199
   sK   CR   1       0.4068   0.0199
   sK   CT   1       0.4068   0.0224
   sK   C1   1       0.4068   0.0224
   sK   C3   1       0.4068   0.0224
   sK   C4   1       0.4068   0.0224
   sK   C7   1       0.4068   0.0224
   sK   C8   1       0.4068   0.0224
   sK   C9   1       0.4068   0.0224
   sK   CV   1       0.4068   0.0199
   sK   CW   1       0.4068   0.0199
   sK   C*   1       0.4068   0.0199
   sK   C0   1       0.3894   0.0459
   sK    F   1       0.3927   0.0167
   sK    H   1       0.2903   0.0085
   sK   HB   1       0.2903   0.0085
   sK   HC   1       0.3693   0.0085
   sK   H1   1       0.3604   0.0085
   sK   H2   1       0.3515   0.0085
   sK   H3   1       0.3426   0.0085
   sK   HA   1       0.3668   0.0083
   sK   H4   1       0.3623   0.0083
   sK   H5   1       0.3579   0.0083
   sK   HO   1       0.2368   0.0000
   sK   HS   1       0.2903   0.0085
   sK   HW   1       0.2368   0.0000
   sK   HP   1       0.3348   0.0085
   sK    I   1       0.4462   0.0428
   sK   Cl   1       0.4569   0.0214
   sK   Na   1       0.4032   0.0036
   sK   IB   1       0.6823   0.0214
   sK   MG   1       0.3074   0.0640
   sK    N   1       0.3993   0.0279
   sK   NA   1       0.3993   0.0279
   sK   NB   1       0.3993   0.0279
   sK   NC   1       0.3993   0.0279
   sK   N2   1       0.3993   0.0279
   sK   N3   1       0.3993   0.0279
   sK   N*   1       0.3993   0.0279
   sK    O   1       0.3848   0.0310
   sK   OB   1       0.3848   0.0310
   sK   OW   1       0.3943   0.0264
   sK   OH   1       0.3901   0.0310
   sK   O3   1       0.3901   0.0310
   sK   OS   1       0.3868   0.0279
   sK   O2   1       0.3848   0.0310
   sK    P   1       0.4239   0.0303
   sK    S   1       0.4150   0.0338
   sK   SH   1       0.4150   0.0338
   sK   CU   1       0.4068   0.0199
   sK   FE   1       0.2368   0.0000
   sK    K   1       0.4736   0.0012
   sK   Rb   1       0.5002   0.0009
   sK   Li   1       0.3381   0.0092
   sK   Zn   1       0.3348   0.0076
   sK HW_tip4pew   1       0.2368   0.0000
   sK OW_tip4pew   1       0.3950   0.0273
   sK HW_tip4p   1       0.2368   0.0000
   sK OW_tip4p   1       0.3945   0.0266
   sK HW_tip5p   1       0.2368   0.0000
   sK OW_tip5p   1       0.3928   0.0271
   sK HW_tip4pd   1       0.2368   0.0000
   sK OW_tip4pd   1       0.3951   0.0331
   sK   MW   1       0.2368   0.0000
   sK MCH3   1       0.2368   0.0000
   sK MNH3   1       0.2368   0.0000
   sK   c3   1       0.4068   0.0224
   sK   hc   1       0.3693   0.0085
   sK    c   1       0.4068   0.0199
   sK    o   1       0.3848   0.0310
   sK    n   1       0.3993   0.0279
   sK   h1   1       0.3604   0.0085
   sK   ca   1       0.4068   0.0199
   sK   ha   1       0.3668   0.0083
   sK   n3   1       0.3993   0.0279
   sK   hx   1       0.3348   0.0085
   sK   n4   1       0.3993   0.0279
   sK   hn   1       0.2903   0.0085
  sRb   Br   1       0.2633   0.0000
  sRb    C   1       0.4333   0.0143
  sRb   C6   1       0.4333   0.0143
  sRb   C5   1       0.4333   0.0143
  sRb   CA   1       0.4333   0.0143
  sRb   CB   1       0.4333   0.0143
  sRb   CC   1       0.4333   0.0143
  sRb   CK   1       0.4333   0.0143
  sRb   CM   1       0.4333   0.0143
  sRb   CN   1       0.4333   0.0143
  sRb   CQ   1       0.4333   0.0143
  sRb   CR   1       0.4333   0.0143
  sRb   CT   1       0.4333   0.0161
  sRb   C1   1       0.4333   0.0161
  sRb   C3   1       0.4333   0.0161
  sRb   C4   1       0.4333   0.0161
  sRb   C7   1       0.4333   0.0161
  sRb   C8   1       0.4333   0.0161
  sRb   C9   1       0.4333   0.0161
  sRb   CV   1       0.4333   0.0143
  sRb   CW   1       0.4333   0.0143
  sRb   C*   1       0.4333   0.0143
  sRb   C0   1       0.4160   0.0330
  sRb    F   1       0.4193   0.0120
  sRb    H   1       0.3168   0.0061
  sRb   HB   1       0.3168   0.0061
  sRb   HC   1       0.3958   0.0061
  sRb   H1   1       0.3869   0.0061
  sRb   H2   1       0.3780   0.0061
  sRb   H3   1       0.3691   0.0061
  sRb   HA   1       0.3933   0.0060
  sRb   H4   1       0.3889   0.0060
  sRb   H5   1       0.3844   0.0060
  sRb   HO   1       0.2633   0.0000
  sRb   HS   1       0.3168   0.0061
  sRb   HW   1       0.2633   0.0000
  sRb   HP   1       0.3613   0.0061
  sRb    I   1       0.4727   0.0308
  sRb   Cl   1       0.4834   0.0154
  sRb   Na   1       0.4298   0.0026
  sRb   IB   1       0.7088   0.0154
  sRb   MG   1       0.3340   0.0461
  sRb    N   1       0.4258   0.0201
  sRb   NA   1       0.4258   0.0201
  sRb   NB   1       0.4258   0.0201
  sRb   NC   1       0.4258   0.0201
  sRb   N2   1       0.4258   0.0201
  sRb   N3   1       0.4258   0.0201
  sRb   N*   1       0.4258   0.0201
  sRb    O   1       0.4113   0.0223
  sRb   OB   1       0.4113   0.0223
  sRb   OW   1       0.4209   0.0190
  sRb   OH   1       0.4167   0.0224
  sRb   O3   1       0.4167   0.0224
  sRb   OS   1       0.4133   0.0201
  sRb   O2   1       0.4113   0.0223
  sRb    P   1       0.4504   0.0218
  sRb    S   1       0.4415   0.0244
  sRb   SH   1       0.4415   0.0244
  sRb   CU   1       0.4333   0.0143
  sRb   FE   1       0.2633   0.0000
  sRb    K   1       0.5002   0.0009
  sRb   Rb   1       0.5267   0.0006
  sRb   Li   1       0.3646   0.0066
  sRb   Zn   1       0.3613   0.0054
  sRb HW_tip4pew   1       0.2633   0.0000
  sRb OW_tip4pew   1       0.4216   0.0197
  sRb HW_tip4p   1       0.2633   0.0000
  sRb OW_tip4p   1       0.4210   0.0192
  sRb HW_tip5p   1       0.2633   0.0000
  sRb OW_tip5p   1       0.4193   0.0195
  sRb HW_tip4pd   1       0.2633   0.0000
  sRb OW_tip4pd   1       0.4216   0.0238
  sRb   MW   1       0.2633   0.0000
  sRb MCH3   1       0.2633   0.0000
  sRb MNH3   1       0.2633   0.0000
  sRb   c3   1       0.4333   0.0161
  sRb   hc   1       0.3958   0.0061
  sRb    c   1       0.4333   0.0143
  sRb    o   1       0.4113   0.0223
  sRb    n   1       0.4258   0.0201
  sRb   h1   1       0.3869   0.0061
  sRb   ca   1       0.4333   0.0143
  sRb   ha   1       0.3933   0.0060
  sRb   n3   1       0.4258   0.0201
  sRb   hx   1       0.3613   0.0061
  sRb   n4   1       0.4258   0.0201
  sRb   hn   1       0.3168   0.0061
   Cs   Br   1       0.3025   0.0000
   Cs    C   1       0.4724   0.0104
   Cs   C6   1       0.4724   0.0104
   Cs   C5   1       0.4724   0.0104
   Cs   CA   1       0.4724   0.0104
   Cs   CB   1       0.4724   0.0104
   Cs   CC   1       0.4724   0.0104
   Cs   CK   1       0.4724   0.0104
   Cs   CM   1       0.4724   0.0104
   Cs   CN   1       0.4724   0.0104
   Cs   CQ   1       0.4724   0.0104
   Cs   CR   1       0.4724   0.0104
   Cs   CT   1       0.4724   0.0118
   Cs   C1   1       0.4724   0.0118
   Cs   C3   1       0.4724   0.0118
   Cs   C4   1       0.4724   0.0118
   Cs   C7   1       0.4724   0.0118
   Cs   C8   1       0.4724   0.0118
   Cs   C9   1       0.4724   0.0118
   Cs   CV   1       0.4724   0.0104
   Cs   CW   1       0.4724   0.0104
   Cs   C*   1       0.4724   0.0104
   Cs   C0   1       0.4551   0.0241
   Cs    F   1       0.4584   0.0088
   Cs    H   1       0.3559   0.0045
   Cs   HB   1       0.3559   0.0045
   Cs   HC   1       0.4349   0.0045
   Cs   H1   1       0.4260   0.0045
   Cs   H2   1       0.4171   0.0045
   Cs   H3   1       0.4082   0.0045
   Cs   HA   1       0.4324   0.0044
   Cs   H4   1       0.4280   0.0044
   Cs   H5   1       0.4235   0.0044
   Cs   HO   1       0.3025   0.0000
   Cs   HS   1       0.3559   0.0045
   Cs   HW   1       0.3025   0.0000
   Cs   HP   1       0.4005   0.0045
   Cs    I   1       0.5118   0.0225
   Cs   Cl   1       0.5225   0.0112
   Cs   Na   1       0.4689   0.0019
   Cs   IB   1       0.7479   0.0112
   Cs   MG   1       0.3731   0.0336
   Cs    N   1       0.4650   0.0147
   Cs   NA   1       0.4650   0.0147
   Cs   NB   1       0.4650   0.0147
   Cs   NC   1       0.4650   0.0147
   Cs   N2   1       0.4650   0.0147
   Cs   N3   1       0.4650   0.0147
   Cs   N*   1       0.4650   0.0147
   Cs    O   1       0.4505   0.0163
   Cs   OB   1       0.4505   0.0163
   Cs   OW   1       0.4600   0.0139
   Cs   OH   1       0.4558   0.0163
   Cs   O3   1       0.4558   0.0163
   Cs   OS   1       0.4525   0.0147
   Cs   O2   1       0.4505   0.0163
   Cs    P   1       0.4895   0.0159
   Cs    S   1       0.4806   0.0178
   Cs   SH   1       0.4806   0.0178
   Cs   CU   1       0.4724   0.0104
   Cs   FE   1       0.3025   0.0000
   Cs    K   1       0.5393   0.0006
   Cs   Rb   1       0.5658   0.0005
   Cs   Li   1       0.4038   0.0048
   Cs   Zn   1       0.4005   0.0040
   Cs HW_tip4pew   1       0.3025   0.0000
   Cs OW_tip4pew   1       0.4607   0.0143
   Cs HW_tip4p   1       0.3025   0.0000
   Cs OW_tip4p   1       0.4601   0.0140
   Cs HW_tip5p   1       0.3025   0.0000
   Cs OW_tip5p   1       0.4585   0.0142
   Cs HW_tip4pd   1       0.3025   0.0000
   Cs OW_tip4pd   1       0.4607   0.0174
   Cs   MW   1       0.3025   0.0000
   Cs MCH3   1       0.3025   0.0000
   Cs MNH3   1       0.3025   0.0000
   Cs   c3   1       0.4724   0.0118
   Cs   hc   1       0.4349   0.0045
   Cs    c   1       0.4724   0.0104
   Cs    o   1       0.4505   0.0163
   Cs    n   1       0.4650   0.0147
   Cs   h1   1       0.4260   0.0045
   Cs   ca   1       0.4724   0.0104
   Cs   ha   1       0.4324   0.0044
   Cs   n3   1       0.4650   0.0147
   Cs   hx   1       0.4005   0.0045
   Cs   n4   1       0.4650   0.0147
   Cs   hn   1       0.3559   0.0045
  sCs   Br   1       0.3025   0.0000
  sCs    C   1       0.4724   0.0098
  sCs   C6   1       0.4724   0.0098
  sCs   C5   1       0.4724   0.0098
  sCs   CA   1       0.4724   0.0098
  sCs   CB   1       0.4724   0.0098
  sCs   CC   1       0.4724   0.0098
  sCs   CK   1       0.4724   0.0098
  sCs   CM   1       0.4724   0.0098
  sCs   CN   1       0.4724   0.0098
  sCs   CQ   1       0.4724   0.0098
  sCs   CR   1       0.4724   0.0098
  sCs   CT   1       0.4724   0.0111
  sCs   C1   1       0.4724   0.0111
  sCs   C3   1       0.4724   0.0111
  sCs   C4   1       0.4724   0.0111
  sCs   C7   1       0.4724   0.0111
  sCs   C8   1       0.4724   0.0111
  sCs   C9   1       0.4724   0.0111
  sCs   CV   1       0.4724   0.0098
  sCs   CW   1       0.4724   0.0098
  sCs   C*   1       0.4724   0.0098
  sCs   C0   1       0.4551   0.0228
  sCs    F   1       0.4584   0.0083
  sCs    H   1       0.3559   0.0042
  sCs   HB   1       0.3559   0.0042
  sCs   HC   1       0.4349   0.0042
  sCs   H1   1       0.4260   0.0042
  sCs   H2   1       0.4171   0.0042
  sCs   H3   1       0.4082   0.0042
  sCs   HA   1       0.4324   0.0041
  sCs   H4   1       0.4280   0.0041
  sCs   H5   1       0.4235   0.0041
  sCs   HO   1       0.3025   0.0000
  sCs   HS   1       0.3559   0.0042
  sCs   HW   1       0.3025   0.0000
  sCs   HP   1       0.4005   0.0042
  sCs    I   1       0.5118   0.0212
  sCs   Cl   1       0.5225   0.0106
  sCs   Na   1       0.4689   0.0018
  sCs   IB   1       0.7479   0.0106
  sCs   MG   1       0.3731   0.0317
  sCs    N   1       0.4650   0.0138
  sCs   NA   1       0.4650   0.0138
  sCs   NB   1       0.4650   0.0138
  sCs   NC   1       0.4650   0.0138
  sCs   N2   1       0.4650   0.0138
  sCs   N3   1       0.4650   0.0138
  sCs   N*   1       0.4650   0.0138
  sCs    O   1       0.4505   0.0154
  sCs   OB   1       0.4505   0.0154
  sCs   OW   1       0.4600   0.0131
  sCs   OH   1       0.4558   0.0154
  sCs   O3   1       0.4558   0.0154
  sCs   OS   1       0.4525   0.0138
  sCs   O2   1       0.4505   0.0154
  sCs    P   1       0.4895   0.0150
  sCs    S   1       0.4806   0.0168
  sCs   SH   1       0.4806   0.0168
  sCs   CU   1       0.4724   0.0098
  sCs   FE   1       0.3025   0.0000
  sCs    K   1       0.5393   0.0006
  sCs   Rb   1       0.5658   0.0004
  sCs   Li   1       0.4038   0.0045
  sCs   Zn   1       0.4005   0.0038
  sCs HW_tip4pew   1       0.3025   0.0000
  sCs OW_tip4pew   1       0.4607   0.0135
  sCs HW_tip4p   1       0.3025   0.0000
  sCs OW_tip4p   1       0.4601   0.0132
  sCs HW_tip5p   1       0.3025   0.0000
  sCs OW_tip5p   1       0.4585   0.0134
  sCs HW_tip4pd   1       0.3025   0.0000
  sCs OW_tip4pd   1       0.4607   0.0164
  sCs   MW   1       0.3025   0.0000
  sCs MCH3   1       0.3025   0.0000
  sCs MNH3   1       0.3025   0.0000
  sCs   c3   1       0.4724   0.0111
  sCs   hc   1       0.4349   0.0042
  sCs    c   1       0.4724   0.0098
  sCs    o   1       0.4505   0.0154
  sCs    n   1       0.4650   0.0138
  sCs   h1   1       0.4260   0.0042
  sCs   ca   1       0.4724   0.0098
  sCs   ha   1       0.4324   0.0041
  sCs   n3   1       0.4650   0.0138
  sCs   hx   1       0.4005   0.0042
  sCs   n4   1       0.4650   0.0138
  sCs   hn   1       0.3559   0.0042
OW_spc   Br   1       0.1583   0.0000
OW_spc    C   1       0.3283   0.4580
OW_spc   C6   1       0.3283   0.4580
OW_spc   C5   1       0.3283   0.4580
OW_spc   CA   1       0.3283   0.4580
OW_spc   CB   1       0.3283   0.4580
OW_spc   CC   1       0.3283   0.4580
OW_spc   CK   1       0.3283   0.4580
OW_spc   CM   1       0.3283   0.4580
OW_spc   CN   1       0.3283   0.4580
OW_spc   CQ   1       0.3283   0.4580
OW_spc   CR   1       0.3283   0.4580
OW_spc   CT   1       0.3283   0.5166
OW_spc   C1   1       0.3283   0.5166
OW_spc   C3   1       0.3283   0.5166
OW_spc   C4   1       0.3283   0.5166
OW_spc   C7   1       0.3283   0.5166
OW_spc   C8   1       0.3283   0.5166
OW_spc   C9   1       0.3283   0.5166
OW_spc   CV   1       0.3283   0.4580
OW_spc   CW   1       0.3283   0.4580
OW_spc   C*   1       0.3283   0.4580
OW_spc   C0   1       0.3109   1.0590
OW_spc    F   1       0.3142   0.3857
OW_spc    H   1       0.2117   0.1957
OW_spc   HB   1       0.2117   0.1957
OW_spc   HC   1       0.2908   0.1957
OW_spc   H1   1       0.2818   0.1957
OW_spc   H2   1       0.2729   0.1957
OW_spc   H3   1       0.2640   0.1957
OW_spc   HA   1       0.2883   0.1913
OW_spc   H4   1       0.2838   0.1913
OW_spc   H5   1       0.2794   0.1913
OW_spc   HO   1       0.1583   0.0000
OW_spc   HS   1       0.2117   0.1957
OW_spc   HW   1       0.1583   0.0000
OW_spc   HP   1       0.2563   0.1957
OW_spc    I   1       0.3676   0.9877
OW_spc   Cl   1       0.3783   0.4939
OW_spc   Na   1       0.3247   0.0822
OW_spc   IB   1       0.6037   0.4939
OW_spc   MG   1       0.2289   1.4772
OW_spc    N   1       0.3208   0.6439
OW_spc   NA   1       0.3208   0.6439
OW_spc   NB   1       0.3208   0.6439
OW_spc   NC   1       0.3208   0.6439
OW_spc   N2   1       0.3208   0.6439
OW_spc   N3   1       0.3208   0.6439
OW_spc   N*   1       0.3208   0.6439
OW_spc    O   1       0.3063   0.7157
OW_spc   OB   1       0.3063   0.7157
OW_spc   OW   1       0.3158   0.6091
OW_spc   OH   1       0.3116   0.7164
OW_spc   O3   1       0.3116   0.7164
OW_spc   OS   1       0.3083   0.6439
OW_spc   O2   1       0.3063   0.7157
OW_spc    P   1       0.3454   0.6984
OW_spc    S   1       0.3365   0.7809
OW_spc   SH   1       0.3365   0.7809
OW_spc   CU   1       0.3283   0.4580
OW_spc   FE   1       0.1583   0.0000
OW_spc    K   1       0.3951   0.0283
OW_spc   Rb   1       0.4216   0.0204
OW_spc   Li   1       0.2596   0.2113
OW_spc   Zn   1       0.2563   0.1746
OW_spc HW_tip4pew   1       0.1583   0.0000
OW_spc OW_tip4pew   1       0.3165   0.6300
OW_spc HW_tip4p   1       0.1583   0.0000
OW_spc OW_tip4p   1       0.3160   0.6149
OW_spc HW_tip5p   1       0.1583   0.0000
OW_spc OW_tip5p   1       0.3143   0.6247
OW_spc HW_tip4pd   1       0.1583   0.0000
OW_spc OW_tip4pd   1       0.3165   0.7631
OW_spc   MW   1       0.1583   0.0000
OW_spc MCH3   1       0.1583   0.0000
OW_spc MNH3   1       0.1583   0.0000
OW_spc   c3   1       0.3283   0.5166
OW_spc   hc   1       0.2908   0.1957
OW_spc    c   1       0.3283   0.4580
OW_spc    o   1       0.3063   0.7157
OW_spc    n   1       0.3208   0.6439
OW_spc   h1   1       0.2818   0.1957
OW_spc   ca   1       0.3283   0.4580
OW_spc   ha   1       0.2883   0.1913
OW_spc   n3   1       0.3208   0.6439
OW_spc   hx   1       0.2563   0.1957
OW_spc   n4   1       0.3208   0.6439
OW_spc   hn   1       0.2117   0.1957
sOW_spc   Br   1       0.1583   0.0000
sOW_spc    C   1       0.3283   0.4322
sOW_spc   C6   1       0.3283   0.4322
sOW_spc   C5   1       0.3283   0.4322
sOW_spc   CA   1       0.3283   0.4322
sOW_spc   CB   1       0.3283   0.4322
sOW_spc   CC   1       0.3283   0.4322
sOW_spc   CK   1       0.3283   0.4322
sOW_spc   CM   1       0.3283   0.4322
sOW_spc   CN   1       0.3283   0.4322
sOW_spc   CQ   1       0.3283   0.4322
sOW_spc   CR   1       0.3283   0.4322
sOW_spc   CT   1       0.3283   0.4875
sOW_spc   C1   1       0.3283   0.4875
sOW_spc   C3   1       0.3283   0.4875
sOW_spc   C4   1       0.3283   0.4875
sOW_spc   C7   1       0.3283   0.4875
sOW_spc   C8   1       0.3283   0.4875
sOW_spc   C9   1       0.3283   0.4875
sOW_spc   CV   1       0.3283   0.4322
sOW_spc   CW   1       0.3283   0.4322
sOW_spc   C*   1       0.3283   0.4322
sOW_spc   C0   1       0.3109   0.9994
sOW_spc    F   1       0.3142   0.3640
sOW_spc    H   1       0.2117   0.1847
sOW_spc   HB   1       0.2117   0.1847
sOW_spc   HC   1       0.2908   0.1847
sOW_spc   H1   1       0.2818   0.1847
sOW_spc   H2   1       0.2729   0.1847
sOW_spc   H3   1       0.2640   0.1847
sOW_spc   HA   1       0.2883   0.1805
sOW_spc   H4   1       0.2838   0.1805
sOW_spc   H5   1       0.2794   0.1805
sOW_spc   HO   1       0.1583   0.0000
sOW_spc   HS   1       0.2117   0.1847
sOW_spc   HW   1       0.1583   0.0000
sOW_spc   HP   1       0.2563   0.1847
sOW_spc    I   1       0.3676   0.9321
sOW_spc   Cl   1       0.3783   0.4661
sOW_spc   Na   1       0.3247   0.0776
sOW_spc   IB   1       0.6037   0.4661
sOW_spc   MG   1       0.2289   1.3941
sOW_spc    N   1       0.3208   0.6077
sOW_spc   NA   1       0.3208   0.6077
sOW_spc   NB   1       0.3208   0.6077
sOW_spc   NC   1       0.3208   0.6077
sOW_spc   N2   1       0.3208   0.6077
sOW_spc   N3   1       0.3208   0.6077
sOW_spc   N*   1       0.3208   0.6077
sOW_spc    O   1       0.3063   0.6754
sOW_spc   OB   1       0.3063   0.6754
sOW_spc   OW   1       0.3158   0.5748
sOW_spc   OH   1       0.3116   0.6760
sOW_spc   O3   1       0.3116   0.6760
sOW_spc   OS   1       0.3083   0.6077
sOW_spc   O2   1       0.3063   0.6754
sOW_spc    P   1       0.3454   0.6591
sOW_spc    S   1       0.3365   0.7369
sOW_spc   SH   1       0.3365   0.7369
sOW_spc   CU   1       0.3283   0.4322
sOW_spc   FE   1       0.1583   0.0000
sOW_spc    K   1       0.3951   0.0267
sOW_spc   Rb   1       0.4216   0.0192
sOW_spc   Li   1       0.2596   0.1994
sOW_spc   Zn   1       0.2563   0.1648
sOW_spc HW_tip4pew   1       0.1583   0.0000
sOW_spc OW_tip4pew   1       0.3165   0.5946
sOW_spc HW_tip4p   1       0.1583   0.0000
sOW_spc OW_tip4p   1       0.3160   0.5803
sOW_spc HW_tip5p   1       0.1583   0.0000
sOW_spc OW_tip5p   1       0.3143   0.5895
sOW_spc HW_tip4pd   1       0.1583   0.0000
sOW_spc OW_tip4pd   1       0.3165   0.7202
sOW_spc   MW   1       0.1583   0.0000
sOW_spc MCH3   1       0.1583   0.0000
sOW_spc MNH3   1       0.1583   0.0000
sOW_spc   c3   1       0.3283   0.4875
sOW_spc   hc   1       0.2908   0.1847
sOW_spc    c   1       0.3283   0.4322
sOW_spc    o   1       0.3063   0.6754
sOW_spc    n   1       0.3208   0.6077
sOW_spc   h1   1       0.2818   0.1847
sOW_spc   ca   1       0.3283   0.4322
sOW_spc   ha   1       0.2883   0.1805
sOW_spc   n3   1       0.3208   0.6077
sOW_spc   hx   1       0.2563   0.1847
sOW_spc   n4   1       0.3208   0.6077
sOW_spc   hn   1       0.2117   0.1847
HW_spc   Br   1       0.0000   0.0000
HW_spc    C   1       0.1700   0.0000
HW_spc   C6   1       0.1700   0.0000
HW_spc   C5   1       0.1700   0.0000
HW_spc   CA   1       0.1700   0.0000
HW_spc   CB   1       0.1700   0.0000
HW_spc   CC   1       0.1700   0.0000
HW_spc   CK   1       0.1700   0.0000
HW_spc   CM   1       0.1700   0.0000
HW_spc   CN   1       0.1700   0.0000
HW_spc   CQ   1       0.1700   0.0000
HW_spc   CR   1       0.1700   0.0000
HW_spc   CT   1       0.1700   0.0000
HW_spc   C1   1       0.1700   0.0000
HW_spc   C3   1       0.1700   0.0000
HW_spc   C4   1       0.1700   0.0000
HW_spc   C7   1       0.1700   0.0000
HW_spc   C8   1       0.1700   0.0000
HW_spc   C9   1       0.1700   0.0000
HW_spc   CV   1       0.1700   0.0000
HW_spc   CW   1       0.1700   0.0000
HW_spc   C*   1       0.1700   0.0000
HW_spc   C0   1       0.1526   0.0000
HW_spc    F   1       0.1559   0.0000
HW_spc    H   1       0.0535   0.0000
HW_spc   HB   1       0.0535   0.0000
HW_spc   HC   1       0.1325   0.0000
HW_spc   H1   1       0.1236   0.0000
HW_spc   H2   1       0.1147   0.0000
HW_spc   H3   1       0.1057   0.0000
HW_spc   HA   1       0.1300   0.0000
HW_spc   H4   1       0.1255   0.0000
HW_spc   H5   1       0.1211   0.0000
HW_spc   HO   1       0.0000   0.0000
HW_spc   HS   1       0.0535   0.0000
HW_spc   HW   1       0.0000   0.0000
HW_spc   HP   1       0.0980   0.0000
HW_spc    I   1       0.2094   0.0000
HW_spc   Cl   1       0.2201   0.0000
HW_spc   Na   1       0.1664   0.0000
HW_spc   IB   1       0.4454   0.0000
HW_spc   MG   1       0.0706   0.0000
HW_spc    N   1       0.1625   0.0000
HW_spc   NA   1       0.1625   0.0000
HW_spc   NB   1       0.1625   0.0000
HW_spc   NC   1       0.1625   0.0000
HW_spc   N2   1       0.1625   0.0000
HW_spc   N3   1       0.1625   0.0000
HW_spc   N*   1       0.1625   0.0000
HW_spc    O   1       0.1480   0.0000
HW_spc   OB   1       0.1480   0.0000
HW_spc   OW   1       0.1575   0.0000
HW_spc   OH   1       0.1533   0.0000
HW_spc   O3   1       0.1533   0.0000
HW_spc   OS   1       0.1500   0.0000
HW_spc   O2   1       0.1480   0.0000
HW_spc    P   1       0.1871   0.0000
HW_spc    S   1       0.1782   0.0000
HW_spc   SH   1       0.1782   0.0000
HW_spc   CU   1       0.1700   0.0000
HW_spc   FE   1       0.0000   0.0000
HW_spc    K   1       0.2368   0.0000
HW_spc   Rb   1       0.2633   0.0000
HW_spc   Li   1       0.1013   0.0000
HW_spc   Zn   1       0.0980   0.0000
HW_spc HW_tip4pew   1       0.0000   0.0000
HW_spc OW_tip4pew   1       0.1582   0.0000
HW_spc HW_tip4p   1       0.0000   0.0000
HW_spc OW_tip4p   1       0.1577   0.0000
HW_spc HW_tip5p   1       0.0000   0.0000
HW_spc OW_tip5p   1       0.1560   0.0000
HW_spc HW_tip4pd   1       0.0000   0.0000
HW_spc OW_tip4pd   1       0.1583   0.0000
HW_spc   MW   1       0.0000   0.0000
HW_spc MCH3   1       0.0000   0.0000
HW_spc MNH3   1       0.0000   0.0000
HW_spc   c3   1       0.1700   0.0000
HW_spc   hc   1       0.1325   0.0000
HW_spc    c   1       0.1700   0.0000
HW_spc    o   1       0.1480   0.0000
HW_spc    n   1       0.1625   0.0000
HW_spc   h1   1       0.1236   0.0000
HW_spc   ca   1       0.1700   0.0000
HW_spc   ha   1       0.1300   0.0000
HW_spc   n3   1       0.1625   0.0000
HW_spc   hx   1       0.0980   0.0000
HW_spc   n4   1       0.1625   0.0000
HW_spc   hn   1       0.0535   0.0000
sHW_spc   Br   1       0.0000   0.0000
sHW_spc    C   1       0.1700   0.0000
sHW_spc   C6   1       0.1700   0.0000
sHW_spc   C5   1       0.1700   0.0000
sHW_spc   CA   1       0.1700   0.0000
sHW_spc   CB   1       0.1700   0.0000
sHW_spc   CC   1       0.1700   0.0000
sHW_spc   CK   1       0.1700   0.0000
sHW_spc   CM   1       0.1700   0.0000
sHW_spc   CN   1       0.1700   0.0000
sHW_spc   CQ   1       0.1700   0.0000
sHW_spc   CR   1       0.1700   0.0000
sHW_spc   CT   1       0.1700   0.0000
sHW_spc   C1   1       0.1700   0.0000
sHW_spc   C3   1       0.1700   0.0000
sHW_spc   C4   1       0.1700   0.0000
sHW_spc   C7   1       0.1700   0.0000
sHW_spc   C8   1       0.1700   0.0000
sHW_spc   C9   1       0.1700   0.0000
sHW_spc   CV   1       0.1700   0.0000
sHW_spc   CW   1       0.1700   0.0000
sHW_spc   C*   1       0.1700   0.0000
sHW_spc   C0   1       0.1526   0.0000
sHW_spc    F   1       0.1559   0.0000
sHW_spc    H   1       0.0535   0.0000
sHW_spc   HB   1       0.0535   0.0000
sHW_spc   HC   1       0.1325   0.0000
sHW_spc   H1   1       0.1236   0.0000
sHW_spc   H2   1       0.1147   0.0000
sHW_spc   H3   1       0.1057   0.0000
sHW_spc   HA   1       0.1300   0.0000
sHW_spc   H4   1       0.1255   0.0000
sHW_spc   H5   1       0.1211   0.0000
sHW_spc   HO   1       0.0000   0.0000
sHW_spc   HS   1       0.0535   0.0000
sHW_spc   HW   1       0.0000   0.0000
sHW_spc   HP   1       0.0980   0.0000
sHW_spc    I   1       0.2094   0.0000
sHW_spc   Cl   1       0.2201   0.0000
sHW_spc   Na   1       0.1664   0.0000
sHW_spc   IB   1       0.4454   0.0000
sHW_spc   MG   1       0.0706   0.0000
sHW_spc    N   1       0.1625   0.0000
sHW_spc   NA   1       0.1625   0.0000
sHW_spc   NB   1       0.1625   0.0000
sHW_spc   NC   1       0.1625   0.0000
sHW_spc   N2   1       0.1625   0.0000
sHW_spc   N3   1       0.1625   0.0000
sHW_spc   N*   1       0.1625   0.0000
sHW_spc    O   1       0.1480   0.0000
sHW_spc   OB   1       0.1480   0.0000
sHW_spc   OW   1       0.1575   0.0000
sHW_spc   OH   1       0.1533   0.0000
sHW_spc   O3   1       0.1533   0.0000
sHW_spc   OS   1       0.1500   0.0000
sHW_spc   O2   1       0.1480   0.0000
sHW_spc    P   1       0.1871   0.0000
sHW_spc    S   1       0.1782   0.0000
sHW_spc   SH   1       0.1782   0.0000
sHW_spc   CU   1       0.1700   0.0000
sHW_spc   FE   1       0.0000   0.0000
sHW_spc    K   1       0.2368   0.0000
sHW_spc   Rb   1       0.2633   0.0000
sHW_spc   Li   1       0.1013   0.0000
sHW_spc   Zn   1       0.0980   0.0000
sHW_spc HW_tip4pew   1       0.0000   0.0000
sHW_spc OW_tip4pew   1       0.1582   0.0000
sHW_spc HW_tip4p   1       0.0000   0.0000
sHW_spc OW_tip4p   1       0.1577   0.0000
sHW_spc HW_tip5p   1       0.0000   0.0000
sHW_spc OW_tip5p   1       0.1560   0.0000
sHW_spc HW_tip4pd   1       0.0000   0.0000
sHW_spc OW_tip4pd   1       0.1583   0.0000
sHW_spc   MW   1       0.0000   0.0000
sHW_spc MCH3   1       0.0000   0.0000
sHW_spc MNH3   1       0.0000   0.0000
sHW_spc   c3   1       0.1700   0.0000
sHW_spc   hc   1       0.1325   0.0000
sHW_spc    c   1       0.1700   0.0000
sHW_spc    o   1       0.1480   0.0000
sHW_spc    n   1       0.1625   0.0000
sHW_spc   h1   1       0.1236   0.0000
sHW_spc   ca   1       0.1700   0.0000
sHW_spc   ha   1       0.1300   0.0000
sHW_spc   n3   1       0.1625   0.0000
sHW_spc   hx   1       0.0980   0.0000
sHW_spc   n4   1       0.1625   0.0000
sHW_spc   hn   1       0.0535   0.0000
  sLi   Br   1       0.1013   0.0000
  sLi    C   1       0.2713   0.1483
  sLi   C6   1       0.2713   0.1483
  sLi   C5   1       0.2713   0.1483
  sLi   CA   1       0.2713   0.1483
  sLi   CB   1       0.2713   0.1483
  sLi   CC   1       0.2713   0.1483
  sLi   CK   1       0.2713   0.1483
  sLi   CM   1       0.2713   0.1483
  sLi   CN   1       0.2713   0.1483
  sLi   CQ   1       0.2713   0.1483
  sLi   CR   1       0.2713   0.1483
  sLi   CT   1       0.2713   0.1672
  sLi   C1   1       0.2713   0.1672
  sLi   C3   1       0.2713   0.1672
  sLi   C4   1       0.2713   0.1672
  sLi   C7   1       0.2713   0.1672
  sLi   C8   1       0.2713   0.1672
  sLi   C9   1       0.2713   0.1672
  sLi   CV   1       0.2713   0.1483
  sLi   CW   1       0.2713   0.1483
  sLi   C*   1       0.2713   0.1483
  sLi   C0   1       0.2539   0.3428
  sLi    F   1       0.2572   0.1249
  sLi    H   1       0.1547   0.0634
  sLi   HB   1       0.1547   0.0634
  sLi   HC   1       0.2338   0.0634
  sLi   H1   1       0.2249   0.0634
  sLi   H2   1       0.2160   0.0634
  sLi   H3   1       0.2070   0.0634
  sLi   HA   1       0.2313   0.0619
  sLi   H4   1       0.2268   0.0619
  sLi   H5   1       0.2224   0.0619
  sLi   HO   1       0.1013   0.0000
  sLi   HS   1       0.1547   0.0634
  sLi   HW   1       0.1013   0.0000
  sLi   HP   1       0.1993   0.0634
  sLi    I   1       0.3107   0.3198
  sLi   Cl   1       0.3213   0.1599
  sLi   Na   1       0.2677   0.0266
  sLi   IB   1       0.5467   0.1599
  sLi   MG   1       0.1719   0.4782
  sLi    N   1       0.2638   0.2085
  sLi   NA   1       0.2638   0.2085
  sLi   NB   1       0.2638   0.2085
  sLi   NC   1       0.2638   0.2085
  sLi   N2   1       0.2638   0.2085
  sLi   N3   1       0.2638   0.2085
  sLi   N*   1       0.2638   0.2085
  sLi    O   1       0.2493   0.2317
  sLi   OB   1       0.2493   0.2317
  sLi   OW   1       0.2588   0.1972
  sLi   OH   1       0.2546   0.2319
  sLi   O3   1       0.2546   0.2319
  sLi   OS   1       0.2513   0.2085
  sLi   O2   1       0.2493   0.2317
  sLi    P   1       0.2884   0.2261
  sLi    S   1       0.2795   0.2528
  sLi   SH   1       0.2795   0.2528
  sLi   CU   1       0.2713   0.1483
  sLi   FE   1       0.1013   0.0000
  sLi    K   1       0.3381   0.0092
  sLi   Rb   1       0.3646   0.0066
  sLi   Li   1       0.2026   0.0684
  sLi   Zn   1       0.1993   0.0565
  sLi HW_tip4pew   1       0.1013   0.0000
  sLi OW_tip4pew   1       0.2595   0.2040
  sLi HW_tip4p   1       0.1013   0.0000
  sLi OW_tip4p   1       0.2590   0.1991
  sLi HW_tip5p   1       0.1013   0.0000
  sLi OW_tip5p   1       0.2573   0.2022
  sLi HW_tip4pd   1       0.1013   0.0000
  sLi OW_tip4pd   1       0.2595   0.2471
  sLi   MW   1       0.1013   0.0000
  sLi MCH3   1       0.1013   0.0000
  sLi MNH3   1       0.1013   0.0000
  sLi   c3   1       0.2713   0.1672
  sLi   hc   1       0.2338   0.0634
  sLi    c   1       0.2713   0.1483
  sLi    o   1       0.2493   0.2317
  sLi    n   1       0.2638   0.2085
  sLi   h1   1       0.2249   0.0634
  sLi   ca   1       0.2713   0.1483
  sLi   ha   1       0.2313   0.0619
  sLi   n3   1       0.2638   0.2085
  sLi   hx   1       0.1993   0.0634
  sLi   n4   1       0.2638   0.2085
  sLi   hn   1       0.1547   0.0634
  sZn   Br   1       0.0980   0.0000
  sZn    C   1       0.2680   0.1225
  sZn   C6   1       0.2680   0.1225
  sZn   C5   1       0.2680   0.1225
  sZn   CA   1       0.2680   0.1225
  sZn   CB   1       0.2680   0.1225
  sZn   CC   1       0.2680   0.1225
  sZn   CK   1       0.2680   0.1225
  sZn   CM   1       0.2680   0.1225
  sZn   CN   1       0.2680   0.1225
  sZn   CQ   1       0.2680   0.1225
  sZn   CR   1       0.2680   0.1225
  sZn   CT   1       0.2680   0.1382
  sZn   C1   1       0.2680   0.1382
  sZn   C3   1       0.2680   0.1382
  sZn   C4   1       0.2680   0.1382
  sZn   C7   1       0.2680   0.1382
  sZn   C8   1       0.2680   0.1382
  sZn   C9   1       0.2680   0.1382
  sZn   CV   1       0.2680   0.1225
  sZn   CW   1       0.2680   0.1225
  sZn   C*   1       0.2680   0.1225
  sZn   C0   1       0.2506   0.2833
  sZn    F   1       0.2539   0.1032
  sZn    H   1       0.1515   0.0524
  sZn   HB   1       0.1515   0.0524
  sZn   HC   1       0.2305   0.0524
  sZn   H1   1       0.2216   0.0524
  sZn   H2   1       0.2127   0.0524
  sZn   H3   1       0.2037   0.0524
  sZn   HA   1       0.2280   0.0512
  sZn   H4   1       0.2235   0.0512
  sZn   H5   1       0.2191   0.0512
  sZn   HO   1       0.0980   0.0000
  sZn   HS   1       0.1515   0.0524
  sZn   HW   1       0.0980   0.0000
  sZn   HP   1       0.1960   0.0524
  sZn    I   1       0.3074   0.2643
  sZn   Cl   1       0.3181   0.1321
  sZn   Na   1       0.2644   0.0220
  sZn   IB   1       0.5434   0.1321
  sZn   MG   1       0.1686   0.3953
  sZn    N   1       0.2605   0.1723
  sZn   NA   1       0.2605   0.1723
  sZn   NB   1       0.2605   0.1723
  sZn   NC   1       0.2605   0.1723
  sZn   N2   1       0.2605   0.1723
  sZn   N3   1       0.2605   0.1723
  sZn   N*   1       0.2605   0.1723
  sZn    O   1       0.2460   0.1915
  sZn   OB   1       0.2460   0.1915
  sZn   OW   1       0.2555   0.1630
  sZn   OH   1       0.2513   0.1917
  sZn   O3   1       0.2513   0.1917
  sZn   OS   1       0.2480   0.1723
  sZn   O2   1       0.2460   0.1915
  sZn    P   1       0.2851   0.1869
  sZn    S   1       0.2762   0.2089
  sZn   SH   1       0.2762   0.2089
  sZn   CU   1       0.2680   0.1225
  sZn   FE   1       0.0980   0.0000
  sZn    K   1       0.3348   0.0076
  sZn   Rb   1       0.3613   0.0054
  sZn   Li   1       0.1993   0.0565
  sZn   Zn   1       0.1960   0.0467
  sZn HW_tip4pew   1       0.0980   0.0000
  sZn OW_tip4pew   1       0.2562   0.1686
  sZn HW_tip4p   1       0.0980   0.0000
  sZn OW_tip4p   1       0.2557   0.1645
  sZn HW_tip5p   1       0.0980   0.0000
  sZn OW_tip5p   1       0.2540   0.1671
  sZn HW_tip4pd   1       0.0980   0.0000
  sZn OW_tip4pd   1       0.2562   0.2042
  sZn   MW   1       0.0980   0.0000
  sZn MCH3   1       0.0980   0.0000
  sZn MNH3   1       0.0980   0.0000
  sZn   c3   1       0.2680   0.1382
  sZn   hc   1       0.2305   0.0524
  sZn    c   1       0.2680   0.1225
  sZn    o   1       0.2460   0.1915
  sZn    n   1       0.2605   0.1723
  sZn   h1   1       0.2216   0.0524
  sZn   ca   1       0.2680   0.1225
  sZn   ha   1       0.2280   0.0512
  sZn   n3   1       0.2605   0.1723
  sZn   hx   1       0.1960   0.0524
  sZn   n4   1       0.2605   0.1723
  sZn   hn   1       0.1515   0.0524
sHW_tip4pew   Br   1       0.0000   0.0000
sHW_tip4pew    C   1       0.1700   0.0000
sHW_tip4pew   C6   1       0.1700   0.0000
sHW_tip4pew   C5   1       0.1700   0.0000
sHW_tip4pew   CA   1       0.1700   0.0000
sHW_tip4pew   CB   1       0.1700   0.0000
sHW_tip4pew   CC   1       0.1700   0.0000
sHW_tip4pew   CK   1       0.1700   0.0000
sHW_tip4pew   CM   1       0.1700   0.0000
sHW_tip4pew   CN   1       0.1700   0.0000
sHW_tip4pew   CQ   1       0.1700   0.0000
sHW_tip4pew   CR   1       0.1700   0.0000
sHW_tip4pew   CT   1       0.1700   0.0000
sHW_tip4pew   C1   1       0.1700   0.0000
sHW_tip4pew   C3   1       0.1700   0.0000
sHW_tip4pew   C4   1       0.1700   0.0000
sHW_tip4pew   C7   1       0.1700   0.0000
sHW_tip4pew   C8   1       0.1700   0.0000
sHW_tip4pew   C9   1       0.1700   0.0000
sHW_tip4pew   CV   1       0.1700   0.0000
sHW_tip4pew   CW   1       0.1700   0.0000
sHW_tip4pew   C*   1       0.1700   0.0000
sHW_tip4pew   C0   1       0.1526   0.0000
sHW_tip4pew    F   1       0.1559   0.0000
sHW_tip4pew    H   1       0.0535   0.0000
sHW_tip4pew   HB   1       0.0535   0.0000
sHW_tip4pew   HC   1       0.1325   0.0000
sHW_tip4pew   H1   1       0.1236   0.0000
sHW_tip4pew   H2   1       0.1147   0.0000
sHW_tip4pew   H3   1       0.1057   0.0000
sHW_tip4pew   HA   1       0.1300   0.0000
sHW_tip4pew   H4   1       0.1255   0.0000
sHW_tip4pew   H5   1       0.1211   0.0000
sHW_tip4pew   HO   1       0.0000   0.0000
sHW_tip4pew   HS   1       0.0535   0.0000
sHW_tip4pew   HW   1       0.0000   0.0000
sHW_tip4pew   HP   1       0.0980   0.0000
sHW_tip4pew    I   1       0.2094   0.0000
sHW_tip4pew   Cl   1       0.2201   0.0000
sHW_tip4pew   Na   1       0.1664   0.0000
sHW_tip4pew   IB   1       0.4454   0.0000
sHW_tip4pew   MG   1       0.0706   0.0000
sHW_tip4pew    N   1       0.1625   0.0000
sHW_tip4pew   NA   1       0.1625   0.0000
sHW_tip4pew   NB   1       0.1625   0.0000
sHW_tip4pew   NC   1       0.1625   0.0000
sHW_tip4pew   N2   1       0.1625   0.0000
sHW_tip4pew   N3   1       0.1625   0.0000
sHW_tip4pew   N*   1       0.1625   0.0000
sHW_tip4pew    O   1       0.1480   0.0000
sHW_tip4pew   OB   1       0.1480   0.0000
sHW_tip4pew   OW   1       0.1575   0.0000
sHW_tip4pew   OH   1       0.1533   0.0000
sHW_tip4pew   O3   1       0.1533   0.0000
sHW_tip4pew   OS   1       0.1500   0.0000
sHW_tip4pew   O2   1       0.1480   0.0000
sHW_tip4pew    P   1       0.1871   0.0000
sHW_tip4pew    S   1       0.1782   0.0000
sHW_tip4pew   SH   1       0.1782   0.0000
sHW_tip4pew   CU   1       0.1700   0.0000
sHW_tip4pew   FE   1       0.0000   0.0000
sHW_tip4pew    K   1       0.2368   0.0000
sHW_tip4pew   Rb   1       0.2633   0.0000
sHW_tip4pew   Li   1       0.1013   0.0000
sHW_tip4pew   Zn   1       0.0980   0.0000
sHW_tip4pew HW_tip4pew   1       0.0000   0.0000
sHW_tip4pew OW_tip4pew   1       0.1582   0.0000
sHW_tip4pew HW_tip4p   1       0.0000   0.0000
sHW_tip4pew OW_tip4p   1       0.1577   0.0000
sHW_tip4pew HW_tip5p   1       0.0000   0.0000
sHW_tip4pew OW_tip5p   1       0.1560   0.0000
sHW_tip4pew HW_tip4pd   1       0.0000   0.0000
sHW_tip4pew OW_tip4pd   1       0.1583   0.0000
sHW_tip4pew   MW   1       0.0000   0.0000
sHW_tip4pew MCH3   1       0.0000   0.0000
sHW_tip4pew MNH3   1       0.0000   0.0000
sHW_tip4pew   c3   1       0.1700   0.0000
sHW_tip4pew   hc   1       0.1325   0.0000
sHW_tip4pew    c   1       0.1700   0.0000
sHW_tip4pew    o   1       0.1480   0.0000
sHW_tip4pew    n   1       0.1625   0.0000
sHW_tip4pew   h1   1       0.1236   0.0000
sHW_tip4pew   ca   1       0.1700   0.0000
sHW_tip4pew   ha   1       0.1300   0.0000
sHW_tip4pew   n3   1       0.1625   0.0000
sHW_tip4pew   hx   1       0.0980   0.0000
sHW_tip4pew   n4   1       0.1625   0.0000
sHW_tip4pew   hn   1       0.0535   0.0000
sOW_tip4pew   Br   1       0.1582   0.0000
sOW_tip4pew    C   1       0.3282   0.4422
sOW_tip4pew   C6   1       0.3282   0.4422
sOW_tip4pew   C5   1       0.3282   0.4422
sOW_tip4pew   CA   1       0.3282   0.4422
sOW_tip4pew   CB   1       0.3282   0.4422
sOW_tip4pew   CC   1       0.3282   0.4422
sOW_tip4pew   CK   1       0.3282   0.4422
sOW_tip4pew   CM   1       0.3282   0.4422
sOW_tip4pew   CN   1       0.3282   0.4422
sOW_tip4pew   CQ   1       0.3282   0.4422
sOW_tip4pew   CR   1       0.3282   0.4422
sOW_tip4pew   CT   1       0.3282   0.4987
sOW_tip4pew   C1   1       0.3282   0.4987
sOW_tip4pew   C3   1       0.3282   0.4987
sOW_tip4pew   C4   1       0.3282   0.4987
sOW_tip4pew   C7   1       0.3282   0.4987
sOW_tip4pew   C8   1       0.3282   0.4987
sOW_tip4pew   C9   1       0.3282   0.4987
sOW_tip4pew   CV   1       0.3282   0.4422
sOW_tip4pew   CW   1       0.3282   0.4422
sOW_tip4pew   C*   1       0.3282   0.4422
sOW_tip4pew   C0   1       0.3108   1.0224
sOW_tip4pew    F   1       0.3141   0.3724
sOW_tip4pew    H   1       0.2117   0.1889
sOW_tip4pew   HB   1       0.2117   0.1889
sOW_tip4pew   HC   1       0.2907   0.1889
sOW_tip4pew   H1   1       0.2818   0.1889
sOW_tip4pew   H2   1       0.2729   0.1889
sOW_tip4pew   H3   1       0.2640   0.1889
sOW_tip4pew   HA   1       0.2882   0.1847
sOW_tip4pew   H4   1       0.2837   0.1847
sOW_tip4pew   H5   1       0.2793   0.1847
sOW_tip4pew   HO   1       0.1582   0.0000
sOW_tip4pew   HS   1       0.2117   0.1889
sOW_tip4pew   HW   1       0.1582   0.0000
sOW_tip4pew   HP   1       0.2562   0.1889
sOW_tip4pew    I   1       0.3676   0.9536
sOW_tip4pew   Cl   1       0.3783   0.4768
sOW_tip4pew   Na   1       0.3246   0.0794
sOW_tip4pew   IB   1       0.6037   0.4768
sOW_tip4pew   MG   1       0.2288   1.4262
sOW_tip4pew    N   1       0.3207   0.6217
sOW_tip4pew   NA   1       0.3207   0.6217
sOW_tip4pew   NB   1       0.3207   0.6217
sOW_tip4pew   NC   1       0.3207   0.6217
sOW_tip4pew   N2   1       0.3207   0.6217
sOW_tip4pew   N3   1       0.3207   0.6217
sOW_tip4pew   N*   1       0.3207   0.6217
sOW_tip4pew    O   1       0.3062   0.6910
sOW_tip4pew   OB   1       0.3062   0.6910
sOW_tip4pew   OW   1       0.3157   0.5880
sOW_tip4pew   OH   1       0.3115   0.6916
sOW_tip4pew   O3   1       0.3115   0.6916
sOW_tip4pew   OS   1       0.3082   0.6217
sOW_tip4pew   O2   1       0.3062   0.6910
sOW_tip4pew    P   1       0.3453   0.6743
sOW_tip4pew    S   1       0.3364   0.7539
sOW_tip4pew   SH   1       0.3364   0.7539
sOW_tip4pew   CU   1       0.3282   0.4422
sOW_tip4pew   FE   1       0.1582   0.0000
sOW_tip4pew    K   1       0.3950   0.0273
sOW_tip4pew   Rb   1       0.4216   0.0197
sOW_tip4pew   Li   1       0.2595   0.2040
sOW_tip4pew   Zn   1       0.2562   0.1686
sOW_tip4pew HW_tip4pew   1       0.1582   0.0000
sOW_tip4pew OW_tip4pew   1       0.3164   0.6083
sOW_tip4pew HW_tip4p   1       0.1582   0.0000
sOW_tip4pew OW_tip4p   1       0.3159   0.5936
sOW_tip4pew HW_tip5p   1       0.1582   0.0000
sOW_tip4pew OW_tip5p   1       0.3142   0.6031
sOW_tip4pew HW_tip4pd   1       0.1582   0.0000
sOW_tip4pew OW_tip4pd   1       0.3165   0.7368
sOW_tip4pew   MW   1       0.1582   0.0000
sOW_tip4pew MCH3   1       0.1582   0.0000
sOW_tip4pew MNH3   1       0.1582   0.0000
sOW_tip4pew   c3   1       0.3282   0.4987
sOW_tip4pew   hc   1       0.2907   0.1889
sOW_tip4pew    c   1       0.3282   0.4422
sOW_tip4pew    o   1       0.3062   0.6910
sOW_tip4pew    n   1       0.3207   0.6217
sOW_tip4pew   h1   1       0.2818   0.1889
sOW_tip4pew   ca   1       0.3282   0.4422
sOW_tip4pew   ha   1       0.2882   0.1847
sOW_tip4pew   n3   1       0.3207   0.6217
sOW_tip4pew   hx   1       0.2562   0.1889
sOW_tip4pew   n4   1       0.3207   0.6217
sOW_tip4pew   hn   1       0.2117   0.1889
sHW_tip4p   Br   1       0.0000   0.0000
sHW_tip4p    C   1       0.1700   0.0000
sHW_tip4p   C6   1       0.1700   0.0000
sHW_tip4p   C5   1       0.1700   0.0000
sHW_tip4p   CA   1       0.1700   0.0000
sHW_tip4p   CB   1       0.1700   0.0000
sHW_tip4p   CC   1       0.1700   0.0000
sHW_tip4p   CK   1       0.1700   0.0000
sHW_tip4p   CM   1       0.1700   0.0000
sHW_tip4p   CN   1       0.1700   0.0000
sHW_tip4p   CQ   1       0.1700   0.0000
sHW_tip4p   CR   1       0.1700   0.0000
sHW_tip4p   CT   1       0.1700   0.0000
sHW_tip4p   C1   1       0.1700   0.0000
sHW_tip4p   C3   1       0.1700   0.0000
sHW_tip4p   C4   1       0.1700   0.0000
sHW_tip4p   C7   1       0.1700   0.0000
sHW_tip4p   C8   1       0.1700   0.0000
sHW_tip4p   C9   1       0.1700   0.0000
sHW_tip4p   CV   1       0.1700   0.0000
sHW_tip4p   CW   1       0.1700   0.0000
sHW_tip4p   C*   1       0.1700   0.0000
sHW_tip4p   C0   1       0.1526   0.0000
sHW_tip4p    F   1       0.1559   0.0000
sHW_tip4p    H   1       0.0535   0.0000
sHW_tip4p   HB   1       0.0535   0.0000
sHW_tip4p   HC   1       0.1325   0.0000
sHW_tip4p   H1   1       0.1236   0.0000
sHW_tip4p   H2   1       0.1147   0.0000
sHW_tip4p   H3   1       0.1057   0.0000
sHW_tip4p   HA   1       0.1300   0.0000
sHW_tip4p   H4   1       0.1255   0.0000
sHW_tip4p   H5   1       0.1211   0.0000
sHW_tip4p   HO   1       0.0000   0.0000
sHW_tip4p   HS   1       0.0535   0.0000
sHW_tip4p   HW   1       0.0000   0.0000
sHW_tip4p   HP   1       0.0980   0.0000
sHW_tip4p    I   1       0.2094   0.0000
sHW_tip4p   Cl   1       0.2201   0.0000
sHW_tip4p   Na   1       0.1664   0.0000
sHW_tip4p   IB   1       0.4454   0.0000
sHW_tip4p   MG   1       0.0706   0.0000
sHW_tip4p    N   1       0.1625   0.0000
sHW_tip4p   NA   1       0.1625   0.0000
sHW_tip4p   NB   1       0.1625   0.0000
sHW_tip4p   NC   1       0.1625   0.0000
sHW_tip4p   N2   1       0.1625   0.0000
sHW_tip4p   N3   1       0.1625   0.0000
sHW_tip4p   N*   1       0.1625   0.0000
sHW_tip4p    O   1       0.1480   0.0000
sHW_tip4p   OB   1       0.1480   0.0000
sHW_tip4p   OW   1       0.1575   0.0000
sHW_tip4p   OH   1       0.1533   0.0000
sHW_tip4p   O3   1       0.1533   0.0000
sHW_tip4p   OS   1       0.1500   0.0000
sHW_tip4p   O2   1       0.1480   0.0000
sHW_tip4p    P   1       0.1871   0.0000
sHW_tip4p    S   1       0.1782   0.0000
sHW_tip4p   SH   1       0.1782   0.0000
sHW_tip4p   CU   1       0.1700   0.0000
sHW_tip4p   FE   1       0.0000   0.0000
sHW_tip4p    K   1       0.2368   0.0000
sHW_tip4p   Rb   1       0.2633   0.0000
sHW_tip4p   Li   1       0.1013   0.0000
sHW_tip4p   Zn   1       0.0980   0.0000
sHW_tip4p HW_tip4pew   1       0.0000   0.0000
sHW_tip4p OW_tip4pew   1       0.1582   0.0000
sHW_tip4p HW_tip4p   1       0.0000   0.0000
sHW_tip4p OW_tip4p   1       0.1577   0.0000
sHW_tip4p HW_tip5p   1       0.0000   0.0000
sHW_tip4p OW_tip5p   1       0.1560   0.0000
sHW_tip4p HW_tip4pd   1       0.0000   0.0000
sHW_tip4p OW_tip4pd   1       0.1583   0.0000
sHW_tip4p   MW   1       0.0000   0.0000
sHW_tip4p MCH3   1       0.0000   0.0000
sHW_tip4p MNH3   1       0.0000   0.0000
sHW_tip4p   c3   1       0.1700   0.0000
sHW_tip4p   hc   1       0.1325   0.0000
sHW_tip4p    c   1       0.1700   0.0000
sHW_tip4p    o   1       0.1480   0.0000
sHW_tip4p    n   1       0.1625   0.0000
sHW_tip4p   h1   1       0.1236   0.0000
sHW_tip4p   ca   1       0.1700   0.0000
sHW_tip4p   ha   1       0.1300   0.0000
sHW_tip4p   n3   1       0.1625   0.0000
sHW_tip4p   hx   1       0.0980   0.0000
sHW_tip4p   n4   1       0.1625   0.0000
sHW_tip4p   hn   1       0.0535   0.0000
sOW_tip4p   Br   1       0.1577   0.0000
sOW_tip4p    C   1       0.3277   0.4315
sOW_tip4p   C6   1       0.3277   0.4315
sOW_tip4p   C5   1       0.3277   0.4315
sOW_tip4p   CA   1       0.3277   0.4315
sOW_tip4p   CB   1       0.3277   0.4315
sOW_tip4p   CC   1       0.3277   0.4315
sOW_tip4p   CK   1       0.3277   0.4315
sOW_tip4p   CM   1       0.3277   0.4315
sOW_tip4p   CN   1       0.3277   0.4315
sOW_tip4p   CQ   1       0.3277   0.4315
sOW_tip4p   CR   1       0.3277   0.4315
sOW_tip4p   CT   1       0.3277   0.4867
sOW_tip4p   C1   1       0.3277   0.4867
sOW_tip4p   C3   1       0.3277   0.4867
sOW_tip4p   C4   1       0.3277   0.4867
sOW_tip4p   C7   1       0.3277   0.4867
sOW_tip4p   C8   1       0.3277   0.4867
sOW_tip4p   C9   1       0.3277   0.4867
sOW_tip4p   CV   1       0.3277   0.4315
sOW_tip4p   CW   1       0.3277   0.4315
sOW_tip4p   C*   1       0.3277   0.4315
sOW_tip4p   C0   1       0.3103   0.9978
sOW_tip4p    F   1       0.3136   0.3634
sOW_tip4p    H   1       0.2111   0.1844
sOW_tip4p   HB   1       0.2111   0.1844
sOW_tip4p   HC   1       0.2902   0.1844
sOW_tip4p   H1   1       0.2812   0.1844
sOW_tip4p   H2   1       0.2723   0.1844
sOW_tip4p   H3   1       0.2634   0.1844
sOW_tip4p   HA   1       0.2877   0.1802
sOW_tip4p   H4   1       0.2832   0.1802
sOW_tip4p   H5   1       0.2788   0.1802
sOW_tip4p   HO   1       0.1577   0.0000
sOW_tip4p   HS   1       0.2111   0.1844
sOW_tip4p   HW   1       0.1577   0.0000
sOW_tip4p   HP   1       0.2557   0.1844
sOW_tip4p    I   1       0.3670   0.9306
sOW_tip4p   Cl   1       0.3777   0.4653
sOW_tip4p   Na   1       0.3241   0.0774
sOW_tip4p   IB   1       0.6031   0.4653
sOW_tip4p   MG   1       0.2283   1.3918
sOW_tip4p    N   1       0.3202   0.6067
sOW_tip4p   NA   1       0.3202   0.6067
sOW_tip4p   NB   1       0.3202   0.6067
sOW_tip4p   NC   1       0.3202   0.6067
sOW_tip4p   N2   1       0.3202   0.6067
sOW_tip4p   N3   1       0.3202   0.6067
sOW_tip4p   N*   1       0.3202   0.6067
sOW_tip4p    O   1       0.3057   0.6743
sOW_tip4p   OB   1       0.3057   0.6743
sOW_tip4p   OW   1       0.3152   0.5739
sOW_tip4p   OH   1       0.3110   0.6749
sOW_tip4p   O3   1       0.3110   0.6749
sOW_tip4p   OS   1       0.3077   0.6067
sOW_tip4p   O2   1       0.3057   0.6743
sOW_tip4p    P   1       0.3448   0.6581
sOW_tip4p    S   1       0.3359   0.7357
sOW_tip4p   SH   1       0.3359   0.7357
sOW_tip4p   CU   1       0.3277   0.4315
sOW_tip4p   FE   1       0.1577   0.0000
sOW_tip4p    K   1       0.3945   0.0266
sOW_tip4p   Rb   1       0.4210   0.0192
sOW_tip4p   Li   1       0.2590   0.1991
sOW_tip4p   Zn   1       0.2557   0.1645
sOW_tip4p HW_tip4pew   1       0.1577   0.0000
sOW_tip4p OW_tip4pew   1       0.3159   0.5936
sOW_tip4p HW_tip4p   1       0.1577   0.0000
sOW_tip4p OW_tip4p   1       0.3154   0.5793
sOW_tip4p HW_tip5p   1       0.1577   0.0000
sOW_tip4p OW_tip5p   1       0.3137   0.5886
sOW_tip4p HW_tip4pd   1       0.1577   0.0000
sOW_tip4p OW_tip4pd   1       0.3159   0.7190
sOW_tip4p   MW   1       0.1577   0.0000
sOW_tip4p MCH3   1       0.1577   0.0000
sOW_tip4p MNH3   1       0.1577   0.0000
sOW_tip4p   c3   1       0.3277   0.4867
sOW_tip4p   hc   1       0.2902   0.1844
sOW_tip4p    c   1       0.3277   0.4315
sOW_tip4p    o   1       0.3057   0.6743
sOW_tip4p    n   1       0.3202   0.6067
sOW_tip4p   h1   1       0.2812   0.1844
sOW_tip4p   ca   1       0.3277   0.4315
sOW_tip4p   ha   1       0.2877   0.1802
sOW_tip4p   n3   1       0.3202   0.6067
sOW_tip4p   hx   1       0.2557   0.1844
sOW_tip4p   n4   1       0.3202   0.6067
sOW_tip4p   hn   1       0.2111   0.1844
sHW_tip5p   Br   1       0.0000   0.0000
sHW_tip5p    C   1       0.1700   0.0000
sHW_tip5p   C6   1       0.1700   0.0000
sHW_tip5p   C5   1       0.1700   0.0000
sHW_tip5p   CA   1       0.1700   0.0000
sHW_tip5p   CB   1       0.1700   0.0000
sHW_tip5p   CC   1       0.1700   0.0000
sHW_tip5p   CK   1       0.1700   0.0000
sHW_tip5p   CM   1       0.1700   0.0000
sHW_tip5p   CN   1       0.1700   0.0000
sHW_tip5p   CQ   1       0.1700   0.0000
sHW_tip5p   CR   1       0.1700   0.0000
sHW_tip5p   CT   1       0.1700   0.0000
sHW_tip5p   C1   1       0.1700   0.0000
sHW_tip5p   C3   1       0.1700   0.0000
sHW_tip5p   C4   1       0.1700   0.0000
sHW_tip5p   C7   1       0.1700   0.0000
sHW_tip5p   C8   1       0.1700   0.0000
sHW_tip5p   C9   1       0.1700   0.0000
sHW_tip5p   CV   1       0.1700   0.0000
sHW_tip5p   CW   1       0.1700   0.0000
sHW_tip5p   C*   1       0.1700   0.0000
sHW_tip5p   C0   1       0.1526   0.0000
sHW_tip5p    F   1       0.1559   0.0000
sHW_tip5p    H   1       0.0535   0.0000
sHW_tip5p   HB   1       0.0535   0.0000
sHW_tip5p   HC   1       0.1325   0.0000
sHW_tip5p   H1   1       0.1236   0.0000
sHW_tip5p   H2   1       0.1147   0.0000
sHW_tip5p   H3   1       0.1057   0.0000
sHW_tip5p   HA   1       0.1300   0.0000
sHW_tip5p   H4   1       0.1255   0.0000
sHW_tip5p   H5   1       0.1211   0.0000
sHW_tip5p   HO   1       0.0000   0.0000
sHW_tip5p   HS   1       0.0535   0.0000
sHW_tip5p   HW   1       0.0000   0.0000
sHW_tip5p   HP   1       0.0980   0.0000
sHW_tip5p    I   1       0.2094   0.0000
sHW_tip5p   Cl   1       0.2201   0.0000
sHW_tip5p   Na   1       0.1664   0.0000
sHW_tip5p   IB   1       0.4454   0.0000
sHW_tip5p   MG   1       0.0706   0.0000
sHW_tip5p    N   1       0.1625   0.0000
sHW_tip5p   NA   1       0.1625   0.0000
sHW_tip5p   NB   1       0.1625   0.0000
sHW_tip5p   NC   1       0.1625   0.0000
sHW_tip5p   N2   1       0.1625   0.0000
sHW_tip5p   N3   1       0.1625   0.0000
sHW_tip5p   N*   1       0.1625   0.0000
sHW_tip5p    O   1       0.1480   0.0000
sHW_tip5p   OB   1       0.1480   0.0000
sHW_tip5p   OW   1       0.1575   0.0000
sHW_tip5p   OH   1       0.1533   0.0000
sHW_tip5p   O3   1       0.1533   0.0000
sHW_tip5p   OS   1       0.1500   0.0000
sHW_tip5p   O2   1       0.1480   0.0000
sHW_tip5p    P   1       0.1871   0.0000
sHW_tip5p    S   1       0.1782   0.0000
sHW_tip5p   SH   1       0.1782   0.0000
sHW_tip5p   CU   1       0.1700   0.0000
sHW_tip5p   FE   1       0.0000   0.0000
sHW_tip5p    K   1       0.2368   0.0000
sHW_tip5p   Rb   1       0.2633   0.0000
sHW_tip5p   Li   1       0.1013   0.0000
sHW_tip5p   Zn   1       0.0980   0.0000
sHW_tip5p HW_tip4pew   1       0.0000   0.0000
sHW_tip5p OW_tip4pew   1       0.1582   0.0000
sHW_tip5p HW_tip4p   1       0.0000   0.0000
sHW_tip5p OW_tip4p   1       0.1577   0.0000
sHW_tip5p HW_tip5p   1       0.0000   0.0000
sHW_tip5p OW_tip5p   1       0.1560   0.0000
sHW_tip5p HW_tip4pd   1       0.0000   0.0000
sHW_tip5p OW_tip4pd   1       0.1583   0.0000
sHW_tip5p   MW   1       0.0000   0.0000
sHW_tip5p MCH3   1       0.0000   0.0000
sHW_tip5p MNH3   1       0.0000   0.0000
sHW_tip5p   c3   1       0.1700   0.0000
sHW_tip5p   hc   1       0.1325   0.0000
sHW_tip5p    c   1       0.1700   0.0000
sHW_tip5p    o   1       0.1480   0.0000
sHW_tip5p    n   1       0.1625   0.0000
sHW_tip5p   h1   1       0.1236   0.0000
sHW_tip5p   ca   1       0.1700   0.0000
sHW_tip5p   ha   1       0.1300   0.0000
sHW_tip5p   n3   1       0.1625   0.0000
sHW_tip5p   hx   1       0.0980   0.0000
sHW_tip5p   n4   1       0.1625   0.0000
sHW_tip5p   hn   1       0.0535   0.0000
sOW_tip5p   Br   1       0.1560   0.0000
sOW_tip5p    C   1       0.3260   0.4384
sOW_tip5p   C6   1       0.3260   0.4384
sOW_tip5p   C5   1       0.3260   0.4384
sOW_tip5p   CA   1       0.3260   0.4384
sOW_tip5p   CB   1       0.3260   0.4384
sOW_tip5p   CC   1       0.3260   0.4384
sOW_tip5p   CK   1       0.3260   0.4384
sOW_tip5p   CM   1       0.3260   0.4384
sOW_tip5p   CN   1       0.3260   0.4384
sOW_tip5p   CQ   1       0.3260   0.4384
sOW_tip5p   CR   1       0.3260   0.4384
sOW_tip5p   CT   1       0.3260   0.4945
sOW_tip5p   C1   1       0.3260   0.4945
sOW_tip5p   C3   1       0.3260   0.4945
sOW_tip5p   C4   1       0.3260   0.4945
sOW_tip5p   C7   1       0.3260   0.4945
sOW_tip5p   C8   1       0.3260   0.4945
sOW_tip5p   C9   1       0.3260   0.4945
sOW_tip5p   CV   1       0.3260   0.4384
sOW_tip5p   CW   1       0.3260   0.4384
sOW_tip5p   C*   1       0.3260   0.4384
sOW_tip5p   C0   1       0.3086   1.0137
sOW_tip5p    F   1       0.3119   0.3692
sOW_tip5p    H   1       0.2095   0.1873
sOW_tip5p   HB   1       0.2095   0.1873
sOW_tip5p   HC   1       0.2885   0.1873
sOW_tip5p   H1   1       0.2796   0.1873
sOW_tip5p   H2   1       0.2707   0.1873
sOW_tip5p   H3   1       0.2617   0.1873
sOW_tip5p   HA   1       0.2860   0.1831
sOW_tip5p   H4   1       0.2815   0.1831
sOW_tip5p   H5   1       0.2771   0.1831
sOW_tip5p   HO   1       0.1560   0.0000
sOW_tip5p   HS   1       0.2095   0.1873
sOW_tip5p   HW   1       0.1560   0.0000
sOW_tip5p   HP   1       0.2540   0.1873
sOW_tip5p    I   1       0.3654   0.9455
sOW_tip5p   Cl   1       0.3761   0.4728
sOW_tip5p   Na   1       0.3224   0.0787
sOW_tip5p   IB   1       0.6014   0.4728
sOW_tip5p   MG   1       0.2266   1.4141
sOW_tip5p    N   1       0.3185   0.6164
sOW_tip5p   NA   1       0.3185   0.6164
sOW_tip5p   NB   1       0.3185   0.6164
sOW_tip5p   NC   1       0.3185   0.6164
sOW_tip5p   N2   1       0.3185   0.6164
sOW_tip5p   N3   1       0.3185   0.6164
sOW_tip5p   N*   1       0.3185   0.6164
sOW_tip5p    O   1       0.3040   0.6851
sOW_tip5p   OB   1       0.3040   0.6851
sOW_tip5p   OW   1       0.3135   0.5830
sOW_tip5p   OH   1       0.3093   0.6857
sOW_tip5p   O3   1       0.3093   0.6857
sOW_tip5p   OS   1       0.3060   0.6164
sOW_tip5p   O2   1       0.3040   0.6851
sOW_tip5p    P   1       0.3431   0.6686
sOW_tip5p    S   1       0.3342   0.7475
sOW_tip5p   SH   1       0.3342   0.7475
sOW_tip5p   CU   1       0.3260   0.4384
sOW_tip5p   FE   1       0.1560   0.0000
sOW_tip5p    K   1       0.3928   0.0271
sOW_tip5p   Rb   1       0.4193   0.0195
sOW_tip5p   Li   1       0.2573   0.2022
sOW_tip5p   Zn   1       0.2540   0.1671
sOW_tip5p HW_tip4pew   1       0.1560   0.0000
sOW_tip5p OW_tip4pew   1       0.3142   0.6031
sOW_tip5p HW_tip4p   1       0.1560   0.0000
sOW_tip5p OW_tip4p   1       0.3137   0.5886
sOW_tip5p HW_tip5p   1       0.1560   0.0000
sOW_tip5p OW_tip5p   1       0.3120   0.5980
sOW_tip5p HW_tip4pd   1       0.1560   0.0000
sOW_tip5p OW_tip4pd   1       0.3142   0.7305
sOW_tip5p   MW   1       0.1560   0.0000
sOW_tip5p MCH3   1       0.1560   0.0000
sOW_tip5p MNH3   1       0.1560   0.0000
sOW_tip5p   c3   1       0.3260   0.4945
sOW_tip5p   hc   1       0.2885   0.1873
sOW_tip5p    c   1       0.3260   0.4384
sOW_tip5p    o   1       0.3040   0.6851
sOW_tip5p    n   1       0.3185   0.6164
sOW_tip5p   h1   1       0.2796   0.1873
sOW_tip5p   ca   1       0.3260   0.4384
sOW_tip5p   ha   1       0.2860   0.1831
sOW_tip5p   n3   1       0.3185   0.6164
sOW_tip5p   hx   1       0.2540   0.1873
sOW_tip5p   n4   1       0.3185   0.6164
sOW_tip5p   hn   1       0.2095   0.1873
sHW_tip4pd   Br   1       0.0000   0.0000
sHW_tip4pd    C   1       0.1700   0.0000
sHW_tip4pd   C6   1       0.1700   0.0000
sHW_tip4pd   C5   1       0.1700   0.0000
sHW_tip4pd   CA   1       0.1700   0.0000
sHW_tip4pd   CB   1       0.1700   0.0000
sHW_tip4pd   CC   1       0.1700   0.0000
sHW_tip4pd   CK   1       0.1700   0.0000
sHW_tip4pd   CM   1       0.1700   0.0000
sHW_tip4pd   CN   1       0.1700   0.0000
sHW_tip4pd   CQ   1       0.1700   0.0000
sHW_tip4pd   CR   1       0.1700   0.0000
sHW_tip4pd   CT   1       0.1700   0.0000
sHW_tip4pd   C1   1       0.1700   0.0000
sHW_tip4pd   C3   1       0.1700   0.0000
sHW_tip4pd   C4   1       0.1700   0.0000
sHW_tip4pd   C7   1       0.1700   0.0000
sHW_tip4pd   C8   1       0.1700   0.0000
sHW_tip4pd   C9   1       0.1700   0.0000
sHW_tip4pd   CV   1       0.1700   0.0000
sHW_tip4pd   CW   1       0.1700   0.0000
sHW_tip4pd   C*   1       0.1700   0.0000
sHW_tip4pd   C0   1       0.1526   0.0000
sHW_tip4pd    F   1       0.1559   0.0000
sHW_tip4pd    H   1       0.0535   0.0000
sHW_tip4pd   HB   1       0.0535   0.0000
sHW_tip4pd   HC   1       0.1325   0.0000
sHW_tip4pd   H1   1       0.1236   0.0000
sHW_tip4pd   H2   1       0.1147   0.0000
sHW_tip4pd   H3   1       0.1057   0.0000
sHW_tip4pd   HA   1       0.1300   0.0000
sHW_tip4pd   H4   1       0.1255   0.0000
sHW_tip4pd   H5   1       0.1211   0.0000
sHW_tip4pd   HO   1       0.0000   0.0000
sHW_tip4pd   HS   1       0.0535   0.0000
sHW_tip4pd   HW   1       0.0000   0.0000
sHW_tip4pd   HP   1       0.0980   0.0000
sHW_tip4pd    I   1       0.2094   0.0000
sHW_tip4pd   Cl   1       0.2201   0.0000
sHW_tip4pd   Na   1       0.1664   0.0000
sHW_tip4pd   IB   1       0.4454   0.0000
sHW_tip4pd   MG   1       0.0706   0.0000
sHW_tip4pd    N   1       0.1625   0.0000
sHW_tip4pd   NA   1       0.1625   0.0000
sHW_tip4pd   NB   1       0.1625   0.0000
sHW_tip4pd   NC   1       0.1625   0.0000
sHW_tip4pd   N2   1       0.1625   0.0000
sHW_tip4pd   N3   1       0.1625   0.0000
sHW_tip4pd   N*   1       0.1625   0.0000
sHW_tip4pd    O   1       0.1480   0.0000
sHW_tip4pd   OB   1       0.1480   0.0000
sHW_tip4pd   OW   1       0.1575   0.0000
sHW_tip4pd   OH   1       0.1533   0.0000
sHW_tip4pd   O3   1       0.1533   0.0000
sHW_tip4pd   OS   1       0.1500   0.0000
sHW_tip4pd   O2   1       0.1480   0.0000
sHW_tip4pd    P   1       0.1871   0.0000
sHW_tip4pd    S   1       0.1782   0.0000
sHW_tip4pd   SH   1       0.1782   0.0000
sHW_tip4pd   CU   1       0.1700   0.0000
sHW_tip4pd   FE   1       0.0000   0.0000
sHW_tip4pd    K   1       0.2368   0.0000
sHW_tip4pd   Rb   1       0.2633   0.0000
sHW_tip4pd   Li   1       0.1013   0.0000
sHW_tip4pd   Zn   1       0.0980   0.0000
sHW_tip4pd HW_tip4pew   1       0.0000   0.0000
sHW_tip4pd OW_tip4pew   1       0.1582   0.0000
sHW_tip4pd HW_tip4p   1       0.0000   0.0000
sHW_tip4pd OW_tip4p   1       0.1577   0.0000
sHW_tip4pd HW_tip5p   1       0.0000   0.0000
sHW_tip4pd OW_tip5p   1       0.1560   0.0000
sHW_tip4pd HW_tip4pd   1       0.0000   0.0000
sHW_tip4pd OW_tip4pd   1       0.1583   0.0000
sHW_tip4pd   MW   1       0.0000   0.0000
sHW_tip4pd MCH3   1       0.0000   0.0000
sHW_tip4pd MNH3   1       0.0000   0.0000
sHW_tip4pd   c3   1       0.1700   0.0000
sHW_tip4pd   hc   1       0.1325   0.0000
sHW_tip4pd    c   1       0.1700   0.0000
sHW_tip4pd    o   1       0.1480   0.0000
sHW_tip4pd    n   1       0.1625   0.0000
sHW_tip4pd   h1   1       0.1236   0.0000
sHW_tip4pd   ca   1       0.1700   0.0000
sHW_tip4pd   ha   1       0.1300   0.0000
sHW_tip4pd   n3   1       0.1625   0.0000
sHW_tip4pd   hx   1       0.0980   0.0000
sHW_tip4pd   n4   1       0.1625   0.0000
sHW_tip4pd   hn   1       0.0535   0.0000
sOW_tip4pd   Br   1       0.1583   0.0000
sOW_tip4pd    C   1       0.3282   0.5356
sOW_tip4pd   C6   1       0.3282   0.5356
sOW_tip4pd   C5   1       0.3282   0.5356
sOW_tip4pd   CA   1       0.3282   0.5356
sOW_tip4pd   CB   1       0.3282   0.5356
sOW_tip4pd   CC   1       0.3282   0.5356
sOW_tip4pd   CK   1       0.3282   0.5356
sOW_tip4pd   CM   1       0.3282   0.5356
sOW_tip4pd   CN   1       0.3282   0.5356
sOW_tip4pd   CQ   1       0.3282   0.5356
sOW_tip4pd   CR   1       0.3282   0.5356
sOW_tip4pd   CT   1       0.3282   0.6041
sOW_tip4pd   C1   1       0.3282   0.6041
sOW_tip4pd   C3   1       0.3282   0.6041
sOW_tip4pd   C4   1       0.3282   0.6041
sOW_tip4pd   C7   1       0.3282   0.6041
sOW_tip4pd   C8   1       0.3282   0.6041
sOW_tip4pd   C9   1       0.3282   0.6041
sOW_tip4pd   CV   1       0.3282   0.5356
sOW_tip4pd   CW   1       0.3282   0.5356
sOW_tip4pd   C*   1       0.3282   0.5356
sOW_tip4pd   C0   1       0.3109   1.2384
sOW_tip4pd    F   1       0.3142   0.4511
sOW_tip4pd    H   1       0.2117   0.2288
sOW_tip4pd   HB   1       0.2117   0.2288
sOW_tip4pd   HC   1       0.2907   0.2288
sOW_tip4pd   H1   1       0.2818   0.2288
sOW_tip4pd   H2   1       0.2729   0.2288
sOW_tip4pd   H3   1       0.2640   0.2288
sOW_tip4pd   HA   1       0.2882   0.2237
sOW_tip4pd   H4   1       0.2838   0.2237
sOW_tip4pd   H5   1       0.2793   0.2237
sOW_tip4pd   HO   1       0.1583   0.0000
sOW_tip4pd   HS   1       0.2117   0.2288
sOW_tip4pd   HW   1       0.1583   0.0000
sOW_tip4pd   HP   1       0.2562   0.2288
sOW_tip4pd    I   1       0.3676   1.1550
sOW_tip4pd   Cl   1       0.3783   0.5775
sOW_tip4pd   Na   1       0.3247   0.0961
sOW_tip4pd   IB   1       0.6037   0.5775
sOW_tip4pd   MG   1       0.2289   1.7274
sOW_tip4pd    N   1       0.3207   0.7530
sOW_tip4pd   NA   1       0.3207   0.7530
sOW_tip4pd   NB   1       0.3207   0.7530
sOW_tip4pd   NC   1       0.3207   0.7530
sOW_tip4pd   N2   1       0.3207   0.7530
sOW_tip4pd   N3   1       0.3207   0.7530
sOW_tip4pd   N*   1       0.3207   0.7530
sOW_tip4pd    O   1       0.3062   0.8369
sOW_tip4pd   OB   1       0.3062   0.8369
sOW_tip4pd   OW   1       0.3158   0.7122
sOW_tip4pd   OH   1       0.3116   0.8377
sOW_tip4pd   O3   1       0.3116   0.8377
sOW_tip4pd   OS   1       0.3083   0.7530
sOW_tip4pd   O2   1       0.3062   0.8369
sOW_tip4pd    P   1       0.3453   0.8167
sOW_tip4pd    S   1       0.3364   0.9131
sOW_tip4pd   SH   1       0.3364   0.9131
sOW_tip4pd   CU   1       0.3282   0.5356
sOW_tip4pd   FE   1       0.1583   0.0000
sOW_tip4pd    K   1       0.3951   0.0331
sOW_tip4pd   Rb   1       0.4216   0.0238
sOW_tip4pd   Li   1       0.2595   0.2471
sOW_tip4pd   Zn   1       0.2562   0.2042
sOW_tip4pd HW_tip4pew   1       0.1583   0.0000
sOW_tip4pd OW_tip4pew   1       0.3165   0.7368
sOW_tip4pd HW_tip4p   1       0.1583   0.0000
sOW_tip4pd OW_tip4p   1       0.3159   0.7190
sOW_tip4pd HW_tip5p   1       0.1583   0.0000
sOW_tip4pd OW_tip5p   1       0.3142   0.7305
sOW_tip4pd HW_tip4pd   1       0.1583   0.0000
sOW_tip4pd OW_tip4pd   1       0.3165   0.8924
sOW_tip4pd   MW   1       0.1583   0.0000
sOW_tip4pd MCH3   1       0.1583   0.0000
sOW_tip4pd MNH3   1       0.1583   0.0000
sOW_tip4pd   c3   1       0.3282   0.6041
sOW_tip4pd   hc   1       0.2907   0.2288
sOW_tip4pd    c   1       0.3282   0.5356
sOW_tip4pd    o   1       0.3062   0.8369
sOW_tip4pd    n   1       0.3207   0.7530
sOW_tip4pd   h1   1       0.2818   0.2288
sOW_tip4pd   ca   1       0.3282   0.5356
sOW_tip4pd   ha   1       0.2882   0.2237
sOW_tip4pd   n3   1       0.3207   0.7530
sOW_tip4pd   hx   1       0.2562   0.2288
sOW_tip4pd   n4   1       0.3207   0.7530
sOW_tip4pd   hn   1       0.2117   0.2288
  sMW   Br   1       0.0000   0.0000
  sMW    C   1       0.1700   0.0000
  sMW   C6   1       0.1700   0.0000
  sMW   C5   1       0.1700   0.0000
  sMW   CA   1       0.1700   0.0000
  sMW   CB   1       0.1700   0.0000
  sMW   CC   1       0.1700   0.0000
  sMW   CK   1       0.1700   0.0000
  sMW   CM   1       0.1700   0.0000
  sMW   CN   1       0.1700   0.0000
  sMW   CQ   1       0.1700   0.0000
  sMW   CR   1       0.1700   0.0000
  sMW   CT   1       0.1700   0.0000
  sMW   C1   1       0.1700   0.0000
  sMW   C3   1       0.1700   0.0000
  sMW   C4   1       0.1700   0.0000
  sMW   C7   1       0.1700   0.0000
  sMW   C8   1       0.1700   0.0000
  sMW   C9   1       0.1700   0.0000
  sMW   CV   1       0.1700   0.0000
  sMW   CW   1       0.1700   0.0000
  sMW   C*   1       0.1700   0.0000
  sMW   C0   1       0.1526   0.0000
  sMW    F   1       0.1559   0.0000
  sMW    H   1       0.0535   0.0000
  sMW   HB   1       0.0535   0.0000
  sMW   HC   1       0.1325   0.0000
  sMW   H1   1       0.1236   0.0000
  sMW   H2   1       0.1147   0.0000
  sMW   H3   1       0.1057   0.0000
  sMW   HA   1       0.1300   0.0000
  sMW   H4   1       0.1255   0.0000
  sMW   H5   1       0.1211   0.0000
  sMW   HO   1       0.0000   0.0000
  sMW   HS   1       0.0535   0.0000
  sMW   HW   1       0.0000   0.0000
  sMW   HP   1       0.0980   0.0000
  sMW    I   1       0.2094   0.0000
  sMW   Cl   1       0.2201   0.0000
  sMW   Na   1       0.1664   0.0000
  sMW   IB   1       0.4454   0.0000
  sMW   MG   1       0.0706   0.0000
  sMW    N   1       0.1625   0.0000
  sMW   NA   1       0.1625   0.0000
  sMW   NB   1       0.1625   0.0000
  sMW   NC   1       0.1625   0.0000
  sMW   N2   1       0.1625   0.0000
  sMW   N3   1       0.1625   0.0000
  sMW   N*   1       0.1625   0.0000
  sMW    O   1       0.1480   0.0000
  sMW   OB   1       0.1480   0.0000
  sMW   OW   1       0.1575   0.0000
  sMW   OH   1       0.1533   0.0000
  sMW   O3   1       0.1533   0.0000
  sMW   OS   1       0.1500   0.0000
  sMW   O2   1       0.1480   0.0000
  sMW    P   1       0.1871   0.0000
  sMW    S   1       0.1782   0.0000
  sMW   SH   1       0.1782   0.0000
  sMW   CU   1       0.1700   0.0000
  sMW   FE   1       0.0000   0.0000
  sMW    K   1       0.2368   0.0000
  sMW   Rb   1       0.2633   0.0000
  sMW   Li   1       0.1013   0.0000
  sMW   Zn   1       0.0980   0.0000
  sMW HW_tip4pew   1       0.0000   0.0000
  sMW OW_tip4pew   1       0.1582   0.0000
  sMW HW_tip4p   1       0.0000   0.0000
  sMW OW_tip4p   1       0.1577   0.0000
  sMW HW_tip5p   1       0.0000   0.0000
  sMW OW_tip5p   1       0.1560   0.0000
  sMW HW_tip4pd   1       0.0000   0.0000
  sMW OW_tip4pd   1       0.1583   0.0000
  sMW   MW   1       0.0000   0.0000
  sMW MCH3   1       0.0000   0.0000
  sMW MNH3   1       0.0000   0.0000
  sMW   c3   1       0.1700   0.0000
  sMW   hc   1       0.1325   0.0000
  sMW    c   1       0.1700   0.0000
  sMW    o   1       0.1480   0.0000
  sMW    n   1       0.1625   0.0000
  sMW   h1   1       0.1236   0.0000
  sMW   ca   1       0.1700   0.0000
  sMW   ha   1       0.1300   0.0000
  sMW   n3   1       0.1625   0.0000
  sMW   hx   1       0.0980   0.0000
  sMW   n4   1       0.1625   0.0000
  sMW   hn   1       0.0535   0.0000
sMCH3   Br   1       0.0000   0.0000
sMCH3    C   1       0.1700   0.0000
sMCH3   C6   1       0.1700   0.0000
sMCH3   C5   1       0.1700   0.0000
sMCH3   CA   1       0.1700   0.0000
sMCH3   CB   1       0.1700   0.0000
sMCH3   CC   1       0.1700   0.0000
sMCH3   CK   1       0.1700   0.0000
sMCH3   CM   1       0.1700   0.0000
sMCH3   CN   1       0.1700   0.0000
sMCH3   CQ   1       0.1700   0.0000
sMCH3   CR   1       0.1700   0.0000
sMCH3   CT   1       0.1700   0.0000
sMCH3   C1   1       0.1700   0.0000
sMCH3   C3   1       0.1700   0.0000
sMCH3   C4   1       0.1700   0.0000
sMCH3   C7   1       0.1700   0.0000
sMCH3   C8   1       0.1700   0.0000
sMCH3   C9   1       0.1700   0.0000
sMCH3   CV   1       0.1700   0.0000
sMCH3   CW   1       0.1700   0.0000
sMCH3   C*   1       0.1700   0.0000
sMCH3   C0   1       0.1526   0.0000
sMCH3    F   1       0.1559   0.0000
sMCH3    H   1       0.0535   0.0000
sMCH3   HB   1       0.0535   0.0000
sMCH3   HC   1       0.1325   0.0000
sMCH3   H1   1       0.1236   0.0000
sMCH3   H2   1       0.1147   0.0000
sMCH3   H3   1       0.1057   0.0000
sMCH3   HA   1       0.1300   0.0000
sMCH3   H4   1       0.1255   0.0000
sMCH3   H5   1       0.1211   0.0000
sMCH3   HO   1       0.0000   0.0000
sMCH3   HS   1       0.0535   0.0000
sMCH3   HW   1       0.0000   0.0000
sMCH3   HP   1       0.0980   0.0000
sMCH3    I   1       0.2094   0.0000
sMCH3   Cl   1       0.2201   0.0000
sMCH3   Na   1       0.1664   0.0000
sMCH3   IB   1       0.4454   0.0000
sMCH3   MG   1       0.0706   0.0000
sMCH3    N   1       0.1625   0.0000
sMCH3   NA   1       0.1625   0.0000
sMCH3   NB   1       0.1625   0.0000
sMCH3   NC   1       0.1625   0.0000
sMCH3   N2   1       0.1625   0.0000
sMCH3   N3   1       0.1625   0.0000
sMCH3   N*   1       0.1625   0.0000
sMCH3    O   1       0.1480   0.0000
sMCH3   OB   1       0.1480   0.0000
sMCH3   OW   1       0.1575   0.0000
sMCH3   OH   1       0.1533   0.0000
sMCH3   O3   1       0.1533   0.0000
sMCH3   OS   1       0.1500   0.0000
sMCH3   O2   1       0.1480   0.0000
sMCH3    P   1       0.1871   0.0000
sMCH3    S   1       0.1782   0.0000
sMCH3   SH   1       0.1782   0.0000
sMCH3   CU   1       0.1700   0.0000
sMCH3   FE   1       0.0000   0.0000
sMCH3    K   1       0.2368   0.0000
sMCH3   Rb   1       0.2633   0.0000
sMCH3   Li   1       0.1013   0.0000
sMCH3   Zn   1       0.0980   0.0000
sMCH3 HW_tip4pew   1       0.0000   0.0000
sMCH3 OW_tip4pew   1       0.1582   0.0000
sMCH3 HW_tip4p   1       0.0000   0.0000
sMCH3 OW_tip4p   1       0.1577   0.0000
sMCH3 HW_tip5p   1       0.0000   0.0000
sMCH3 OW_tip5p   1       0.1560   0.0000
sMCH3 HW_tip4pd   1       0.0000   0.0000
sMCH3 OW_tip4pd   1       0.1583   0.0000
sMCH3   MW   1       0.0000   0.0000
sMCH3 MCH3   1       0.0000   0.0000
sMCH3 MNH3   1       0.0000   0.0000
sMCH3   c3   1       0.1700   0.0000
sMCH3   hc   1       0.1325   0.0000
sMCH3    c   1       0.1700   0.0000
sMCH3    o   1       0.1480   0.0000
sMCH3    n   1       0.1625   0.0000
sMCH3   h1   1       0.1236   0.0000
sMCH3   ca   1       0.1700   0.0000
sMCH3   ha   1       0.1300   0.0000
sMCH3   n3   1       0.1625   0.0000
sMCH3   hx   1       0.0980   0.0000
sMCH3   n4   1       0.1625   0.0000
sMCH3   hn   1       0.0535   0.0000
sMNH3   Br   1       0.0000   0.0000
sMNH3    C   1       0.1700   0.0000
sMNH3   C6   1       0.1700   0.0000
sMNH3   C5   1       0.1700   0.0000
sMNH3   CA   1       0.1700   0.0000
sMNH3   CB   1       0.1700   0.0000
sMNH3   CC   1       0.1700   0.0000
sMNH3   CK   1       0.1700   0.0000
sMNH3   CM   1       0.1700   0.0000
sMNH3   CN   1       0.1700   0.0000
sMNH3   CQ   1       0.1700   0.0000
sMNH3   CR   1       0.1700   0.0000
sMNH3   CT   1       0.1700   0.0000
sMNH3   C1   1       0.1700   0.0000
sMNH3   C3   1       0.1700   0.0000
sMNH3   C4   1       0.1700   0.0000
sMNH3   C7   1       0.1700   0.0000
sMNH3   C8   1       0.1700   0.0000
sMNH3   C9   1       0.1700   0.0000
sMNH3   CV   1       0.1700   0.0000
sMNH3   CW   1       0.1700   0.0000
sMNH3   C*   1       0.1700   0.0000
sMNH3   C0   1       0.1526   0.0000
sMNH3    F   1       0.1559   0.0000
sMNH3    H   1       0.0535   0.0000
sMNH3   HB   1       0.0535   0.0000
sMNH3   HC   1       0.1325   0.0000
sMNH3   H1   1       0.1236   0.0000
sMNH3   H2   1       0.1147   0.0000
sMNH3   H3   1       0.1057   0.0000
sMNH3   HA   1       0.1300   0.0000
sMNH3   H4   1       0.1255   0.0000
sMNH3   H5   1       0.1211   0.0000
sMNH3   HO   1       0.0000   0.0000
sMNH3   HS   1       0.0535   0.0000
sMNH3   HW   1       0.0000   0.0000
sMNH3   HP   1       0.0980   0.0000
sMNH3    I   1       0.2094   0.0000
sMNH3   Cl   1       0.2201   0.0000
sMNH3   Na   1       0.1664   0.0000
sMNH3   IB   1       0.4454   0.0000
sMNH3   MG   1       0.0706   0.0000
sMNH3    N   1       0.1625   0.0000
sMNH3   NA   1       0.1625   0.0000
sMNH3   NB   1       0.1625   0.0000
sMNH3   NC   1       0.1625   0.0000
sMNH3   N2   1       0.1625   0.0000
sMNH3   N3   1       0.1625   0.0000
sMNH3   N*   1       0.1625   0.0000
sMNH3    O   1       0.1480   0.0000
sMNH3   OB   1       0.1480   0.0000
sMNH3   OW   1       0.1575   0.0000
sMNH3   OH   1       0.1533   0.0000
sMNH3   O3   1       0.1533   0.0000
sMNH3   OS   1       0.1500   0.0000
sMNH3   O2   1       0.1480   0.0000
sMNH3    P   1       0.1871   0.0000
sMNH3    S   1       0.1782   0.0000
sMNH3   SH   1       0.1782   0.0000
sMNH3   CU   1       0.1700   0.0000
sMNH3   FE   1       0.0000   0.0000
sMNH3    K   1       0.2368   0.0000
sMNH3   Rb   1       0.2633   0.0000
sMNH3   Li   1       0.1013   0.0000
sMNH3   Zn   1       0.0980   0.0000
sMNH3 HW_tip4pew   1       0.0000   0.0000
sMNH3 OW_tip4pew   1       0.1582   0.0000
sMNH3 HW_tip4p   1       0.0000   0.0000
sMNH3 OW_tip4p   1       0.1577   0.0000
sMNH3 HW_tip5p   1       0.0000   0.0000
sMNH3 OW_tip5p   1       0.1560   0.0000
sMNH3 HW_tip4pd   1       0.0000   0.0000
sMNH3 OW_tip4pd   1       0.1583   0.0000
sMNH3   MW   1       0.0000   0.0000
sMNH3 MCH3   1       0.0000   0.0000
sMNH3 MNH3   1       0.0000   0.0000
sMNH3   c3   1       0.1700   0.0000
sMNH3   hc   1       0.1325   0.0000
sMNH3    c   1       0.1700   0.0000
sMNH3    o   1       0.1480   0.0000
sMNH3    n   1       0.1625   0.0000
sMNH3   h1   1       0.1236   0.0000
sMNH3   ca   1       0.1700   0.0000
sMNH3   ha   1       0.1300   0.0000
sMNH3   n3   1       0.1625   0.0000
sMNH3   hx   1       0.0980   0.0000
sMNH3   n4   1       0.1625   0.0000
sMNH3   hn   1       0.0535   0.0000
  sc3   Br   1       0.1700   0.0000
  sc3    C   1       0.3400   0.3625
  sc3   C6   1       0.3400   0.3625
  sc3   C5   1       0.3400   0.3625
  sc3   CA   1       0.3400   0.3625
  sc3   CB   1       0.3400   0.3625
  sc3   CC   1       0.3400   0.3625
  sc3   CK   1       0.3400   0.3625
  sc3   CM   1       0.3400   0.3625
  sc3   CN   1       0.3400   0.3625
  sc3   CQ   1       0.3400   0.3625
  sc3   CR   1       0.3400   0.3625
  sc3   CT   1       0.3400   0.4089
  sc3   C1   1       0.3400   0.4089
  sc3   C3   1       0.3400   0.4089
  sc3   C4   1       0.3400   0.4089
  sc3   C7   1       0.3400   0.4089
  sc3   C8   1       0.3400   0.4089
  sc3   C9   1       0.3400   0.4089
  sc3   CV   1       0.3400   0.3625
  sc3   CW   1       0.3400   0.3625
  sc3   C*   1       0.3400   0.3625
  sc3   C0   1       0.3226   0.8382
  sc3    F   1       0.3259   0.3053
  sc3    H   1       0.2234   0.1549
  sc3   HB   1       0.2234   0.1549
  sc3   HC   1       0.3025   0.1549
  sc3   H1   1       0.2936   0.1549
  sc3   H2   1       0.2846   0.1549
  sc3   H3   1       0.2757   0.1549
  sc3   HA   1       0.3000   0.1514
  sc3   H4   1       0.2955   0.1514
  sc3   H5   1       0.2911   0.1514
  sc3   HO   1       0.1700   0.0000
  sc3   HS   1       0.2234   0.1549
  sc3   HW   1       0.1700   0.0000
  sc3   HP   1       0.2680   0.1549
  sc3    I   1       0.3793   0.7818
  sc3   Cl   1       0.3900   0.3909
  sc3   Na   1       0.3364   0.0651
  sc3   IB   1       0.6154   0.3909
  sc3   MG   1       0.2406   1.1693
  sc3    N   1       0.3325   0.5097
  sc3   NA   1       0.3325   0.5097
  sc3   NB   1       0.3325   0.5097
  sc3   NC   1       0.3325   0.5097
  sc3   N2   1       0.3325   0.5097
  sc3   N3   1       0.3325   0.5097
  sc3   N*   1       0.3325   0.5097
  sc3    O   1       0.3180   0.5665
  sc3   OB   1       0.3180   0.5665
  sc3   OW   1       0.3275   0.4821
  sc3   OH   1       0.3233   0.5670
  sc3   O3   1       0.3233   0.5670
  sc3   OS   1       0.3200   0.5097
  sc3   O2   1       0.3180   0.5665
  sc3    P   1       0.3571   0.5528
  sc3    S   1       0.3482   0.6181
  sc3   SH   1       0.3482   0.6181
  sc3   CU   1       0.3400   0.3625
  sc3   FE   1       0.1700   0.0000
  sc3    K   1       0.4068   0.0224
  sc3   Rb   1       0.4333   0.0161
  sc3   Li   1       0.2713   0.1672
  sc3   Zn   1       0.2680   0.1382
  sc3 HW_tip4pew   1       0.1700   0.0000
  sc3 OW_tip4pew   1       0.3282   0.4987
  sc3 HW_tip4p   1       0.1700   0.0000
  sc3 OW_tip4p   1       0.3277   0.4867
  sc3 HW_tip5p   1       0.1700   0.0000
  sc3 OW_tip5p   1       0.3260   0.4945
  sc3 HW_tip4pd   1       0.1700   0.0000
  sc3 OW_tip4pd   1       0.3282   0.6041
  sc3   MW   1       0.1700   0.0000
  sc3 MCH3   1       0.1700   0.0000
  sc3 MNH3   1       0.1700   0.0000
  sc3   c3   1       0.3400   0.4089
  sc3   hc   1       0.3025   0.1549
  sc3    c   1       0.3400   0.3625
  sc3    o   1       0.3180   0.5665
  sc3    n   1       0.3325   0.5097
  sc3   h1   1       0.2936   0.1549
  sc3   ca   1       0.3400   0.3625
  sc3   ha   1       0.3000   0.1514
  sc3   n3   1       0.3325   0.5097
  sc3   hx   1       0.2680   0.1549
  sc3   n4   1       0.3325   0.5097
  sc3   hn   1       0.2234   0.1549
  shc   Br   1       0.1325   0.0000
  shc    C   1       0.3025   0.1373
  shc   C6   1       0.3025   0.1373
  shc   C5   1       0.3025   0.1373
  shc   CA   1       0.3025   0.1373
  shc   CB   1       0.3025   0.1373
  shc   CC   1       0.3025   0.1373
  shc   CK   1       0.3025   0.1373
  shc   CM   1       0.3025   0.1373
  shc   CN   1       0.3025   0.1373
  shc   CQ   1       0.3025   0.1373
  shc   CR   1       0.3025   0.1373
  shc   CT   1       0.3025   0.1549
  shc   C1   1       0.3025   0.1549
  shc   C3   1       0.3025   0.1549
  shc   C4   1       0.3025   0.1549
  shc   C7   1       0.3025   0.1549
  shc   C8   1       0.3025   0.1549
  shc   C9   1       0.3025   0.1549
  shc   CV   1       0.3025   0.1373
  shc   CW   1       0.3025   0.1373
  shc   C*   1       0.3025   0.1373
  shc   C0   1       0.2851   0.3175
  shc    F   1       0.2884   0.1157
  shc    H   1       0.1859   0.0587
  shc   HB   1       0.1859   0.0587
  shc   HC   1       0.2650   0.0587
  shc   H1   1       0.2560   0.0587
  shc   H2   1       0.2471   0.0587
  shc   H3   1       0.2382   0.0587
  shc   HA   1       0.2625   0.0574
  shc   H4   1       0.2580   0.0574
  shc   H5   1       0.2535   0.0574
  shc   HO   1       0.1325   0.0000
  shc   HS   1       0.1859   0.0587
  shc   HW   1       0.1325   0.0000
  shc   HP   1       0.2305   0.0587
  shc    I   1       0.3418   0.2962
  shc   Cl   1       0.3525   0.1481
  shc   Na   1       0.2989   0.0246
  shc   IB   1       0.5779   0.1481
  shc   MG   1       0.2031   0.4430
  shc    N   1       0.2950   0.1931
  shc   NA   1       0.2950   0.1931
  shc   NB   1       0.2950   0.1931
  shc   NC   1       0.2950   0.1931
  shc   N2   1       0.2950   0.1931
  shc   N3   1       0.2950   0.1931
  shc   N*   1       0.2950   0.1931
  shc    O   1       0.2805   0.2146
  shc   OB   1       0.2805   0.2146
  shc   OW   1       0.2900   0.1826
  shc   OH   1       0.2858   0.2148
  shc   O3   1       0.2858   0.2148
  shc   OS   1       0.2825   0.1931
  shc   O2   1       0.2805   0.2146
  shc    P   1       0.3196   0.2094
  shc    S   1       0.3107   0.2342
  shc   SH   1       0.3107   0.2342
  shc   CU   1       0.3025   0.1373
  shc   FE   1       0.1325   0.0000
  shc    K   1       0.3693   0.0085
  shc   Rb   1       0.3958   0.0061
  shc   Li   1       0.2338   0.0634
  shc   Zn   1       0.2305   0.0524
  shc HW_tip4pew   1       0.1325   0.0000
  shc OW_tip4pew   1       0.2907   0.1889
  shc HW_tip4p   1       0.1325   0.0000
  shc OW_tip4p   1       0.2902   0.1844
  shc HW_tip5p   1       0.1325   0.0000
  shc OW_tip5p   1       0.2885   0.1873
  shc HW_tip4pd   1       0.1325   0.0000
  shc OW_tip4pd   1       0.2907   0.2288
  shc   MW   1       0.1325   0.0000
  shc MCH3   1       0.1325   0.0000
  shc MNH3   1       0.1325   0.0000
  shc   c3   1       0.3025   0.1549
  shc   hc   1       0.2650   0.0587
  shc    c   1       0.3025   0.1373
  shc    o   1       0.2805   0.2146
  shc    n   1       0.2950   0.1931
  shc   h1   1       0.2560   0.0587
  shc   ca   1       0.3025   0.1373
  shc   ha   1       0.2625   0.0574
  shc   n3   1       0.2950   0.1931
  shc   hx   1       0.2305   0.0587
  shc   n4   1       0.2950   0.1931
  shc   hn   1       0.1859   0.0587
   sc   Br   1       0.1700   0.0000
   sc    C   1       0.3400   0.3214
   sc   C6   1       0.3400   0.3214
   sc   C5   1       0.3400   0.3214
   sc   CA   1       0.3400   0.3214
   sc   CB   1       0.3400   0.3214
   sc   CC   1       0.3400   0.3214
   sc   CK   1       0.3400   0.3214
   sc   CM   1       0.3400   0.3214
   sc   CN   1       0.3400   0.3214
   sc   CQ   1       0.3400   0.3214
   sc   CR   1       0.3400   0.3214
   sc   CT   1       0.3400   0.3625
   sc   C1   1       0.3400   0.3625
   sc   C3   1       0.3400   0.3625
   sc   C4   1       0.3400   0.3625
   sc   C7   1       0.3400   0.3625
   sc   C8   1       0.3400   0.3625
   sc   C9   1       0.3400   0.3625
   sc   CV   1       0.3400   0.3214
   sc   CW   1       0.3400   0.3214
   sc   C*   1       0.3400   0.3214
   sc   C0   1       0.3226   0.7432
   sc    F   1       0.3259   0.2707
   sc    H   1       0.2234   0.1373
   sc   HB   1       0.2234   0.1373
   sc   HC   1       0.3025   0.1373
   sc   H1   1       0.2936   0.1373
   sc   H2   1       0.2846   0.1373
   sc   H3   1       0.2757   0.1373
   sc   HA   1       0.3000   0.1342
   sc   H4   1       0.2955   0.1342
   sc   H5   1       0.2911   0.1342
   sc   HO   1       0.1700   0.0000
   sc   HS   1       0.2234   0.1373
   sc   HW   1       0.1700   0.0000
   sc   HP   1       0.2680   0.1373
   sc    I   1       0.3793   0.6932
   sc   Cl   1       0.3900   0.3466
   sc   Na   1       0.3364   0.0577
   sc   IB   1       0.6154   0.3466
   sc   MG   1       0.2406   1.0367
   sc    N   1       0.3325   0.4519
   sc   NA   1       0.3325   0.4519
   sc   NB   1       0.3325   0.4519
   sc   NC   1       0.3325   0.4519
   sc   N2   1       0.3325   0.4519
   sc   N3   1       0.3325   0.4519
   sc   N*   1       0.3325   0.4519
   sc    O   1       0.3180   0.5023
   sc   OB   1       0.3180   0.5023
   sc   OW   1       0.3275   0.4275
   sc   OH   1       0.3233   0.5028
   sc   O3   1       0.3233   0.5028
   sc   OS   1       0.3200   0.4519
   sc   O2   1       0.3180   0.5023
   sc    P   1       0.3571   0.4902
   sc    S   1       0.3482   0.5480
   sc   SH   1       0.3482   0.5480
   sc   CU   1       0.3400   0.3214
   sc   FE   1       0.1700   0.0000
   sc    K   1       0.4068   0.0199
   sc   Rb   1       0.4333   0.0143
   sc   Li   1       0.2713   0.1483
   sc   Zn   1       0.2680   0.1225
   sc HW_tip4pew   1       0.1700   0.0000
   sc OW_tip4pew   1       0.3282   0.4422
   sc HW_tip4p   1       0.1700   0.0000
   sc OW_tip4p   1       0.3277   0.4315
   sc HW_tip5p   1       0.1700   0.0000
   sc OW_tip5p   1       0.3260   0.4384
   sc HW_tip4pd   1       0.1700   0.0000
   sc OW_tip4pd   1       0.3282   0.5356
   sc   MW   1       0.1700   0.0000
   sc MCH3   1       0.1700   0.0000
   sc MNH3   1       0.1700   0.0000
   sc   c3   1       0.3400   0.3625
   sc   hc   1       0.3025   0.1373
   sc    c   1       0.3400   0.3214
   sc    o   1       0.3180   0.5023
   sc    n   1       0.3325   0.4519
   sc   h1   1       0.2936   0.1373
   sc   ca   1       0.3400   0.3214
   sc   ha   1       0.3000   0.1342
   sc   n3   1       0.3325   0.4519
   sc   hx   1       0.2680   0.1373
   sc   n4   1       0.3325   0.4519
   sc   hn   1       0.2234   0.1373
   so   Br   1       0.1480   0.0000
   so    C   1       0.3180   0.5023
   so   C6   1       0.3180   0.5023
   so   C5   1       0.3180   0.5023
   so   CA   1       0.3180   0.5023
   so   CB   1       0.3180   0.5023
   so   CC   1       0.3180   0.5023
   so   CK   1       0.3180   0.5023
   so   CM   1       0.3180   0.5023
   so   CN   1       0.3180   0.5023
   so   CQ   1       0.3180   0.5023
   so   CR   1       0.3180   0.5023
   so   CT   1       0.3180   0.5665
   so   C1   1       0.3180   0.5665
   so   C3   1       0.3180   0.5665
   so   C4   1       0.3180   0.5665
   so   C7   1       0.3180   0.5665
   so   C8   1       0.3180   0.5665
   so   C9   1       0.3180   0.5665
   so   CV   1       0.3180   0.5023
   so   CW   1       0.3180   0.5023
   so   C*   1       0.3180   0.5023
   so   C0   1       0.3006   1.1614
   so    F   1       0.3039   0.4230
   so    H   1       0.2014   0.2146
   so   HB   1       0.2014   0.2146
   so   HC   1       0.2805   0.2146
   so   H1   1       0.2716   0.2146
   so   H2   1       0.2627   0.2146
   so   H3   1       0.2537   0.2146
   so   HA   1       0.2780   0.2098
   so   H4   1       0.2735   0.2098
   so   H5   1       0.2691   0.2098
   so   HO   1       0.1480   0.0000
   so   HS   1       0.2014   0.2146
   so   HW   1       0.1480   0.0000
   so   HP   1       0.2460   0.2146
   so    I   1       0.3574   1.0832
   so   Cl   1       0.3680   0.5416
   so   Na   1       0.3144   0.0901
   so   IB   1       0.5934   0.5416
   so   MG   1       0.2186   1.6201
   so    N   1       0.3105   0.7062
   so   NA   1       0.3105   0.7062
   so   NB   1       0.3105   0.7062
   so   NC   1       0.3105   0.7062
   so   N2   1       0.3105   0.7062
   so   N3   1       0.3105   0.7062
   so   N*   1       0.3105   0.7062
   so    O   1       0.2960   0.7849
   so   OB   1       0.2960   0.7849
   so   OW   1       0.3055   0.6680
   so   OH   1       0.3013   0.7856
   so   O3   1       0.3013   0.7856
   so   OS   1       0.2980   0.7062
   so   O2   1       0.2960   0.7849
   so    P   1       0.3351   0.7660
   so    S   1       0.3262   0.8564
   so   SH   1       0.3262   0.8564
   so   CU   1       0.3180   0.5023
   so   FE   1       0.1480   0.0000
   so    K   1       0.3848   0.0310
   so   Rb   1       0.4113   0.0223
   so   Li   1       0.2493   0.2317
   so   Zn   1       0.2460   0.1915
   so HW_tip4pew   1       0.1480   0.0000
   so OW_tip4pew   1       0.3062   0.6910
   so HW_tip4p   1       0.1480   0.0000
   so OW_tip4p   1       0.3057   0.6743
   so HW_tip5p   1       0.1480   0.0000
   so OW_tip5p   1       0.3040   0.6851
   so HW_tip4pd   1       0.1480   0.0000
   so OW_tip4pd   1       0.3062   0.8369
   so   MW   1       0.1480   0.0000
   so MCH3   1       0.1480   0.0000
   so MNH3   1       0.1480   0.0000
   so   c3   1       0.3180   0.5665
   so   hc   1       0.2805   0.2146
   so    c   1       0.3180   0.5023
   so    o   1       0.2960   0.7849
   so    n   1       0.3105   0.7062
   so   h1   1       0.2716   0.2146
   so   ca   1       0.3180   0.5023
   so   ha   1       0.2780   0.2098
   so   n3   1       0.3105   0.7062
   so   hx   1       0.2460   0.2146
   so   n4   1       0.3105   0.7062
   so   hn   1       0.2014   0.2146
   sn   Br   1       0.1625   0.0000
   sn    C   1       0.3325   0.4519
   sn   C6   1       0.3325   0.4519
   sn   C5   1       0.3325   0.4519
   sn   CA   1       0.3325   0.4519
   sn   CB   1       0.3325   0.4519
   sn   CC   1       0.3325   0.4519
   sn   CK   1       0.3325   0.4519
   sn   CM   1       0.3325   0.4519
   sn   CN   1       0.3325   0.4519
   sn   CQ   1       0.3325   0.4519
   sn   CR   1       0.3325   0.4519
   sn   CT   1       0.3325   0.5097
   sn   C1   1       0.3325   0.5097
   sn   C3   1       0.3325   0.5097
   sn   C4   1       0.3325   0.5097
   sn   C7   1       0.3325   0.5097
   sn   C8   1       0.3325   0.5097
   sn   C9   1       0.3325   0.5097
   sn   CV   1       0.3325   0.4519
   sn   CW   1       0.3325   0.4519
   sn   C*   1       0.3325   0.4519
   sn   C0   1       0.3151   1.0449
   sn    F   1       0.3184   0.3806
   sn    H   1       0.2160   0.1931
   sn   HB   1       0.2160   0.1931
   sn   HC   1       0.2950   0.1931
   sn   H1   1       0.2861   0.1931
   sn   H2   1       0.2772   0.1931
   sn   H3   1       0.2682   0.1931
   sn   HA   1       0.2925   0.1887
   sn   H4   1       0.2880   0.1887
   sn   H5   1       0.2836   0.1887
   sn   HO   1       0.1625   0.0000
   sn   HS   1       0.2160   0.1931
   sn   HW   1       0.1625   0.0000
   sn   HP   1       0.2605   0.1931
   sn    I   1       0.3719   0.9746
   sn   Cl   1       0.3826   0.4873
   sn   Na   1       0.3289   0.0811
   sn   IB   1       0.6079   0.4873
   sn   MG   1       0.2331   1.4576
   sn    N   1       0.3250   0.6354
   sn   NA   1       0.3250   0.6354
   sn   NB   1       0.3250   0.6354
   sn   NC   1       0.3250   0.6354
   sn   N2   1       0.3250   0.6354
   sn   N3   1       0.3250   0.6354
   sn   N*   1       0.3250   0.6354
   sn    O   1       0.3105   0.7062
   sn   OB   1       0.3105   0.7062
   sn   OW   1       0.3200   0.6010
   sn   OH   1       0.3158   0.7069
   sn   O3   1       0.3158   0.7069
   sn   OS   1       0.3125   0.6354
   sn   O2   1       0.3105   0.7062
   sn    P   1       0.3496   0.6892
   sn    S   1       0.3407   0.7705
   sn   SH   1       0.3407   0.7705
   sn   CU   1       0.3325   0.4519
   sn   FE   1       0.1625   0.0000
   sn    K   1       0.3993   0.0279
   sn   Rb   1       0.4258   0.0201
   sn   Li   1       0.2638   0.2085
   sn   Zn   1       0.2605   0.1723
   sn HW_tip4pew   1       0.1625   0.0000
   sn OW_tip4pew   1       0.3207   0.6217
   sn HW_tip4p   1       0.1625   0.0000
   sn OW_tip4p   1       0.3202   0.6067
   sn HW_tip5p   1       0.1625   0.0000
   sn OW_tip5p   1       0.3185   0.6164
   sn HW_tip4pd   1       0.1625   0.0000
   sn OW_tip4pd   1       0.3207   0.7530
   sn   MW   1       0.1625   0.0000
   sn MCH3   1       0.1625   0.0000
   sn MNH3   1       0.1625   0.0000
   sn   c3   1       0.3325   0.5097
   sn   hc   1       0.2950   0.1931
   sn    c   1       0.3325   0.4519
   sn    o   1       0.3105   0.7062
   sn    n   1       0.3250   0.6354
   sn   h1   1       0.2861   0.1931
   sn   ca   1       0.3325   0.4519
   sn   ha   1       0.2925   0.1887
   sn   n3   1       0.3250   0.6354
   sn   hx   1       0.2605   0.1931
   sn   n4   1       0.3250   0.6354
   sn   hn   1       0.2160   0.1931
  sh1   Br   1       0.1236   0.0000
  sh1    C   1       0.2936   0.1373
  sh1   C6   1       0.2936   0.1373
  sh1   C5   1       0.2936   0.1373
  sh1   CA   1       0.2936   0.1373
  sh1   CB   1       0.2936   0.1373
  sh1   CC   1       0.2936   0.1373
  sh1   CK   1       0.2936   0.1373
  sh1   CM   1       0.2936   0.1373
  sh1   CN   1       0.2936   0.1373
  sh1   CQ   1       0.2936   0.1373
  sh1   CR   1       0.2936   0.1373
  sh1   CT   1       0.2936   0.1549
  sh1   C1   1       0.2936   0.1549
  sh1   C3   1       0.2936   0.1549
  sh1   C4   1       0.2936   0.1549
  sh1   C7   1       0.2936   0.1549
  sh1   C8   1       0.2936   0.1549
  sh1   C9   1       0.2936   0.1549
  sh1   CV   1       0.2936   0.1373
  sh1   CW   1       0.2936   0.1373
  sh1   C*   1       0.2936   0.1373
  sh1   C0   1       0.2762   0.3175
  sh1    F   1       0.2795   0.1157
  sh1    H   1       0.1770   0.0587
  sh1   HB   1       0.1770   0.0587
  sh1   HC   1       0.2560   0.0587
  sh1   H1   1       0.2471   0.0587
  sh1   H2   1       0.2382   0.0587
  sh1   H3   1       0.2293   0.0587
  sh1   HA   1       0.2535   0.0574
  sh1   H4   1       0.2491   0.0574
  sh1   H5   1       0.2446   0.0574
  sh1   HO   1       0.1236   0.0000
  sh1   HS   1       0.1770   0.0587
  sh1   HW   1       0.1236   0.0000
  sh1   HP   1       0.2216   0.0587
  sh1    I   1       0.3329   0.2962
  sh1   Cl   1       0.3436   0.1481
  sh1   Na   1       0.2900   0.0246
  sh1   IB   1       0.5690   0.1481
  sh1   MG   1       0.1942   0.4430
  sh1    N   1       0.2861   0.1931
  sh1   NA   1       0.2861   0.1931
  sh1   NB   1       0.2861   0.1931
  sh1   NC   1       0.2861   0.1931
  sh1   N2   1       0.2861   0.1931
  sh1   N3   1       0.2861   0.1931
  sh1   N*   1       0.2861   0.1931
  sh1    O   1       0.2716   0.2146
  sh1   OB   1       0.2716   0.2146
  sh1   OW   1       0.2811   0.1826
  sh1   OH   1       0.2769   0.2148
  sh1   O3   1       0.2769   0.2148
  sh1   OS   1       0.2736   0.1931
  sh1   O2   1       0.2716   0.2146
  sh1    P   1       0.3107   0.2094
  sh1    S   1       0.3017   0.2342
  sh1   SH   1       0.3017   0.2342
  sh1   CU   1       0.2936   0.1373
  sh1   FE   1       0.1236   0.0000
  sh1    K   1       0.3604   0.0085
  sh1   Rb   1       0.3869   0.0061
  sh1   Li   1       0.2249   0.0634
  sh1   Zn   1       0.2216   0.0524
  sh1 HW_tip4pew   1       0.1236   0.0000
  sh1 OW_tip4pew   1       0.2818   0.1889
  sh1 HW_tip4p   1       0.1236   0.0000
  sh1 OW_tip4p   1       0.2812   0.1844
  sh1 HW_tip5p   1       0.1236   0.0000
  sh1 OW_tip5p   1       0.2796   0.1873
  sh1 HW_tip4pd   1       0.1236   0.0000
  sh1 OW_tip4pd   1       0.2818   0.2288
  sh1   MW   1       0.1236   0.0000
  sh1 MCH3   1       0.1236   0.0000
  sh1 MNH3   1       0.1236   0.0000
  sh1   c3   1       0.2936   0.1549
  sh1   hc   1       0.2560   0.0587
  sh1    c   1       0.2936   0.1373
  sh1    o   1       0.2716   0.2146
  sh1    n   1       0.2861   0.1931
  sh1   h1   1       0.2471   0.0587
  sh1   ca   1       0.2936   0.1373
  sh1   ha   1       0.2535   0.0574
  sh1   n3   1       0.2861   0.1931
  sh1   hx   1       0.2216   0.0587
  sh1   n4   1       0.2861   0.1931
  sh1   hn   1       0.1770   0.0587
  sca   Br   1       0.1700   0.0000
  sca    C   1       0.3400   0.3214
  sca   C6   1       0.3400   0.3214
  sca   C5   1       0.3400   0.3214
  sca   CA   1       0.3400   0.3214
  sca   CB   1       0.3400   0.3214
  sca   CC   1       0.3400   0.3214
  sca   CK   1       0.3400   0.3214
  sca   CM   1       0.3400   0.3214
  sca   CN   1       0.3400   0.3214
  sca   CQ   1       0.3400   0.3214
  sca   CR   1       0.3400   0.3214
  sca   CT   1       0.3400   0.3625
  sca   C1   1       0.3400   0.3625
  sca   C3   1       0.3400   0.3625
  sca   C4   1       0.3400   0.3625
  sca   C7   1       0.3400   0.3625
  sca   C8   1       0.3400   0.3625
  sca   C9   1       0.3400   0.3625
  sca   CV   1       0.3400   0.3214
  sca   CW   1       0.3400   0.3214
  sca   C*   1       0.3400   0.3214
  sca   C0   1       0.3226   0.7432
  sca    F   1       0.3259   0.2707
  sca    H   1       0.2234   0.1373
  sca   HB   1       0.2234   0.1373
  sca   HC   1       0.3025   0.1373
  sca   H1   1       0.2936   0.1373
  sca   H2   1       0.2846   0.1373
  sca   H3   1       0.2757   0.1373
  sca   HA   1       0.3000   0.1342
  sca   H4   1       0.2955   0.1342
  sca   H5   1       0.2911   0.1342
  sca   HO   1       0.1700   0.0000
  sca   HS   1       0.2234   0.1373
  sca   HW   1       0.1700   0.0000
  sca   HP   1       0.2680   0.1373
  sca    I   1       0.3793   0.6932
  sca   Cl   1       0.3900   0.3466
  sca   Na   1       0.3364   0.0577
  sca   IB   1       0.6154   0.3466
  sca   MG   1       0.2406   1.0367
  sca    N   1       0.3325   0.4519
  sca   NA   1       0.3325   0.4519
  sca   NB   1       0.3325   0.4519
  sca   NC   1       0.3325   0.4519
  sca   N2   1       0.3325   0.4519
  sca   N3   1       0.3325   0.4519
  sca   N*   1       0.3325   0.4519
  sca    O   1       0.3180   0.5023
  sca   OB   1       0.3180   0.5023
  sca   OW   1       0.3275   0.4275
  sca   OH   1       0.3233   0.5028
  sca   O3   1       0.3233   0.5028
  sca   OS   1       0.3200   0.4519
  sca   O2   1       0.3180   0.5023
  sca    P   1       0.3571   0.4902
  sca    S   1       0.3482   0.5480
  sca   SH   1       0.3482   0.5480
  sca   CU   1       0.3400   0.3214
  sca   FE   1       0.1700   0.0000
  sca    K   1       0.4068   0.0199
  sca   Rb   1       0.4333   0.0143
  sca   Li   1       0.2713   0.1483
  sca   Zn   1       0.2680   0.1225
  sca HW_tip4pew   1       0.1700   0.0000
  sca OW_tip4pew   1       0.3282   0.4422
  sca HW_tip4p   1       0.1700   0.0000
  sca OW_tip4p   1       0.3277   0.4315
  sca HW_tip5p   1       0.1700   0.0000
  sca OW_tip5p   1       0.3260   0.4384
  sca HW_tip4pd   1       0.1700   0.0000
  sca OW_tip4pd   1       0.3282   0.5356
  sca   MW   1       0.1700   0.0000
  sca MCH3   1       0.1700   0.0000
  sca MNH3   1       0.1700   0.0000
  sca   c3   1       0.3400   0.3625
  sca   hc   1       0.3025   0.1373
  sca    c   1       0.3400   0.3214
  sca    o   1       0.3180   0.5023
  sca    n   1       0.3325   0.4519
  sca   h1   1       0.2936   0.1373
  sca   ca   1       0.3400   0.3214
  sca   ha   1       0.3000   0.1342
  sca   n3   1       0.3325   0.4519
  sca   hx   1       0.2680   0.1373
  sca   n4   1       0.3325   0.4519
  sca   hn   1       0.2234   0.1373
  sha   Br   1       0.1300   0.0000
  sha    C   1       0.3000   0.1342
  sha   C6   1       0.3000   0.1342
  sha   C5   1       0.3000   0.1342
  sha   CA   1       0.3000   0.1342
  sha   CB   1       0.3000   0.1342
  sha   CC   1       0.3000   0.1342
  sha   CK   1       0.3000   0.1342
  sha   CM   1       0.3000   0.1342
  sha   CN   1       0.3000   0.1342
  sha   CQ   1       0.3000   0.1342
  sha   CR   1       0.3000   0.1342
  sha   CT   1       0.3000   0.1514
  sha   C1   1       0.3000   0.1514
  sha   C3   1       0.3000   0.1514
  sha   C4   1       0.3000   0.1514
  sha   C7   1       0.3000   0.1514
  sha   C8   1       0.3000   0.1514
  sha   C9   1       0.3000   0.1514
  sha   CV   1       0.3000   0.1342
  sha   CW   1       0.3000   0.1342
  sha   C*   1       0.3000   0.1342
  sha   C0   1       0.2826   0.3104
  sha    F   1       0.2859   0.1131
  sha    H   1       0.1834   0.0574
  sha   HB   1       0.1834   0.0574
  sha   HC   1       0.2625   0.0574
  sha   H1   1       0.2535   0.0574
  sha   H2   1       0.2446   0.0574
  sha   H3   1       0.2357   0.0574
  sha   HA   1       0.2600   0.0561
  sha   H4   1       0.2555   0.0561
  sha   H5   1       0.2511   0.0561
  sha   HO   1       0.1300   0.0000
  sha   HS   1       0.1834   0.0574
  sha   HW   1       0.1300   0.0000
  sha   HP   1       0.2280   0.0574
  sha    I   1       0.3393   0.2895
  sha   Cl   1       0.3500   0.1448
  sha   Na   1       0.2964   0.0241
  sha   IB   1       0.5754   0.1448
  sha   MG   1       0.2006   0.4330
  sha    N   1       0.2925   0.1887
  sha   NA   1       0.2925   0.1887
  sha   NB   1       0.2925   0.1887
  sha   NC   1       0.2925   0.1887
  sha   N2   1       0.2925   0.1887
  sha   N3   1       0.2925   0.1887
  sha   N*   1       0.2925   0.1887
  sha    O   1       0.2780   0.2098
  sha   OB   1       0.2780   0.2098
  sha   OW   1       0.2875   0.1785
  sha   OH   1       0.2833   0.2100
  sha   O3   1       0.2833   0.2100
  sha   OS   1       0.2800   0.1887
  sha   O2   1       0.2780   0.2098
  sha    P   1       0.3171   0.2047
  sha    S   1       0.3082   0.2289
  sha   SH   1       0.3082   0.2289
  sha   CU   1       0.3000   0.1342
  sha   FE   1       0.1300   0.0000
  sha    K   1       0.3668   0.0083
  sha   Rb   1       0.3933   0.0060
  sha   Li   1       0.2313   0.0619
  sha   Zn   1       0.2280   0.0512
  sha HW_tip4pew   1       0.1300   0.0000
  sha OW_tip4pew   1       0.2882   0.1847
  sha HW_tip4p   1       0.1300   0.0000
  sha OW_tip4p   1       0.2877   0.1802
  sha HW_tip5p   1       0.1300   0.0000
  sha OW_tip5p   1       0.2860   0.1831
  sha HW_tip4pd   1       0.1300   0.0000
  sha OW_tip4pd   1       0.2882   0.2237
  sha   MW   1       0.1300   0.0000
  sha MCH3   1       0.1300   0.0000
  sha MNH3   1       0.1300   0.0000
  sha   c3   1       0.3000   0.1514
  sha   hc   1       0.2625   0.0574
  sha    c   1       0.3000   0.1342
  sha    o   1       0.2780   0.2098
  sha    n   1       0.2925   0.1887
  sha   h1   1       0.2535   0.0574
  sha   ca   1       0.3000   0.1342
  sha   ha   1       0.2600   0.0561
  sha   n3   1       0.2925   0.1887
  sha   hx   1       0.2280   0.0574
  sha   n4   1       0.2925   0.1887
  sha   hn   1       0.1834   0.0574
   sy   Br   1       0.1782   0.0000
   sy    C   1       0.3482   0.5807
   sy   C6   1       0.3482   0.5807
   sy   C5   1       0.3482   0.5807
   sy   CA   1       0.3482   0.5807
   sy   CB   1       0.3482   0.5807
   sy   CC   1       0.3482   0.5807
   sy   CK   1       0.3482   0.5807
   sy   CM   1       0.3482   0.5807
   sy   CN   1       0.3482   0.5807
   sy   CQ   1       0.3482   0.5807
   sy   CR   1       0.3482   0.5807
   sy   CT   1       0.3482   0.6550
   sy   C1   1       0.3482   0.6550
   sy   C3   1       0.3482   0.6550
   sy   C4   1       0.3482   0.6550
   sy   C7   1       0.3482   0.6550
   sy   C8   1       0.3482   0.6550
   sy   C9   1       0.3482   0.6550
   sy   CV   1       0.3482   0.5807
   sy   CW   1       0.3482   0.5807
   sy   C*   1       0.3482   0.5807
   sy   C0   1       0.3308   1.3427
   sy    F   1       0.3341   0.4891
   sy    H   1       0.2316   0.2481
   sy   HB   1       0.2316   0.2481
   sy   HC   1       0.3107   0.2481
   sy   H1   1       0.3017   0.2481
   sy   H2   1       0.2928   0.2481
   sy   H3   1       0.2839   0.2481
   sy   HA   1       0.3082   0.2425
   sy   H4   1       0.3037   0.2425
   sy   H5   1       0.2993   0.2425
   sy   HO   1       0.1782   0.0000
   sy   HS   1       0.2316   0.2481
   sy   HW   1       0.1782   0.0000
   sy   HP   1       0.2762   0.2481
   sy    I   1       0.3875   1.2524
   sy   Cl   1       0.3982   0.6262
   sy   Na   1       0.3446   0.1042
   sy   IB   1       0.6236   0.6262
   sy   MG   1       0.2488   1.8730
   sy    N   1       0.3407   0.8165
   sy   NA   1       0.3407   0.8165
   sy   NB   1       0.3407   0.8165
   sy   NC   1       0.3407   0.8165
   sy   N2   1       0.3407   0.8165
   sy   N3   1       0.3407   0.8165
   sy   N*   1       0.3407   0.8165
   sy    O   1       0.3262   0.9074
   sy   OB   1       0.3262   0.9074
   sy   OW   1       0.3357   0.7723
   sy   OH   1       0.3315   0.9083
   sy   O3   1       0.3315   0.9083
   sy   OS   1       0.3282   0.8165
   sy   O2   1       0.3262   0.9074
   sy    P   1       0.3653   0.8856
   sy    S   1       0.3564   0.9901
   sy   SH   1       0.3564   0.9901
   sy   CU   1       0.3482   0.5807
   sy   FE   1       0.1782   0.0000
   sy    K   1       0.4150   0.0359
   sy   Rb   1       0.4415   0.0258
   sy   Li   1       0.2795   0.2679
   sy   Zn   1       0.2762   0.2214
   sy HW_tip4pew   1       0.1782   0.0000
   sy OW_tip4pew   1       0.3364   0.7989
   sy HW_tip4p   1       0.1782   0.0000
   sy OW_tip4p   1       0.3359   0.7796
   sy HW_tip5p   1       0.1782   0.0000
   sy OW_tip5p   1       0.3342   0.7921
   sy HW_tip4pd   1       0.1782   0.0000
   sy OW_tip4pd   1       0.3364   0.9676
   sy   MW   1       0.1782   0.0000
   sy MCH3   1       0.1782   0.0000
   sy MNH3   1       0.1782   0.0000
   sy   c3   1       0.3482   0.6550
   sy   hc   1       0.3107   0.2481
   sy    c   1       0.3482   0.5807
   sy    o   1       0.3262   0.9074
   sy    n   1       0.3407   0.8165
   sy   h1   1       0.3017   0.2481
   sy   ca   1       0.3482   0.5807
   sy   ha   1       0.3082   0.2425
   sy   n3   1       0.3407   0.8165
   sy   hx   1       0.2762   0.2481
   sy   n4   1       0.3407   0.8165
   sy   hn   1       0.2316   0.2481
  ssy   Br   1       0.1782   0.0000
  ssy    C   1       0.3482   0.5480
  ssy   C6   1       0.3482   0.5480
  ssy   C5   1       0.3482   0.5480
  ssy   CA   1       0.3482   0.5480
  ssy   CB   1       0.3482   0.5480
  ssy   CC   1       0.3482   0.5480
  ssy   CK   1       0.3482   0.5480
  ssy   CM   1       0.3482   0.5480
  ssy   CN   1       0.3482   0.5480
  ssy   CQ   1       0.3482   0.5480
  ssy   CR   1       0.3482   0.5480
  ssy   CT   1       0.3482   0.6181
  ssy   C1   1       0.3482   0.6181
  ssy   C3   1       0.3482   0.6181
  ssy   C4   1       0.3482   0.6181
  ssy   C7   1       0.3482   0.6181
  ssy   C8   1       0.3482   0.6181
  ssy   C9   1       0.3482   0.6181
  ssy   CV   1       0.3482   0.5480
  ssy   CW   1       0.3482   0.5480
  ssy   C*   1       0.3482   0.5480
  ssy   C0   1       0.3308   1.2672
  ssy    F   1       0.3341   0.4615
  ssy    H   1       0.2316   0.2342
  ssy   HB   1       0.2316   0.2342
  ssy   HC   1       0.3107   0.2342
  ssy   H1   1       0.3017   0.2342
  ssy   H2   1       0.2928   0.2342
  ssy   H3   1       0.2839   0.2342
  ssy   HA   1       0.3082   0.2289
  ssy   H4   1       0.3037   0.2289
  ssy   H5   1       0.2993   0.2289
  ssy   HO   1       0.1782   0.0000
  ssy   HS   1       0.2316   0.2342
  ssy   HW   1       0.1782   0.0000
  ssy   HP   1       0.2762   0.2342
  ssy    I   1       0.3875   1.1819
  ssy   Cl   1       0.3982   0.5910
  ssy   Na   1       0.3446   0.0984
  ssy   IB   1       0.6236   0.5910
  ssy   MG   1       0.2488   1.7676
  ssy    N   1       0.3407   0.7705
  ssy   NA   1       0.3407   0.7705
  ssy   NB   1       0.3407   0.7705
  ssy   NC   1       0.3407   0.7705
  ssy   N2   1       0.3407   0.7705
  ssy   N3   1       0.3407   0.7705
  ssy   N*   1       0.3407   0.7705
  ssy    O   1       0.3262   0.8564
  ssy   OB   1       0.3262   0.8564
  ssy   OW   1       0.3357   0.7288
  ssy   OH   1       0.3315   0.8572
  ssy   O3   1       0.3315   0.8572
  ssy   OS   1       0.3282   0.7705
  ssy   O2   1       0.3262   0.8564
  ssy    P   1       0.3653   0.8357
  ssy    S   1       0.3564   0.9344
  ssy   SH   1       0.3564   0.9344
  ssy   CU   1       0.3482   0.5480
  ssy   FE   1       0.1782   0.0000
  ssy    K   1       0.4150   0.0338
  ssy   Rb   1       0.4415   0.0244
  ssy   Li   1       0.2795   0.2528
  ssy   Zn   1       0.2762   0.2089
  ssy HW_tip4pew   1       0.1782   0.0000
  ssy OW_tip4pew   1       0.3364   0.7539
  ssy HW_tip4p   1       0.1782   0.0000
  ssy OW_tip4p   1       0.3359   0.7357
  ssy HW_tip5p   1       0.1782   0.0000
  ssy OW_tip5p   1       0.3342   0.7475
  ssy HW_tip4pd   1       0.1782   0.0000
  ssy OW_tip4pd   1       0.3364   0.9131
  ssy   MW   1       0.1782   0.0000
  ssy MCH3   1       0.1782   0.0000
  ssy MNH3   1       0.1782   0.0000
  ssy   c3   1       0.3482   0.6181
  ssy   hc   1       0.3107   0.2342
  ssy    c   1       0.3482   0.5480
  ssy    o   1       0.3262   0.8564
  ssy    n   1       0.3407   0.7705
  ssy   h1   1       0.3017   0.2342
  ssy   ca   1       0.3482   0.5480
  ssy   ha   1       0.3082   0.2289
  ssy   n3   1       0.3407   0.7705
  ssy   hx   1       0.2762   0.2342
  ssy   n4   1       0.3407   0.7705
  ssy   hn   1       0.2316   0.2342
  sn3   Br   1       0.1625   0.0000
  sn3    C   1       0.3325   0.4519
  sn3   C6   1       0.3325   0.4519
  sn3   C5   1       0.3325   0.4519
  sn3   CA   1       0.3325   0.4519
  sn3   CB   1       0.3325   0.4519
  sn3   CC   1       0.3325   0.4519
  sn3   CK   1       0.3325   0.4519
  sn3   CM   1       0.3325   0.4519
  sn3   CN   1       0.3325   0.4519
  sn3   CQ   1       0.3325   0.4519
  sn3   CR   1       0.3325   0.4519
  sn3   CT   1       0.3325   0.5097
  sn3   C1   1       0.3325   0.5097
  sn3   C3   1       0.3325   0.5097
  sn3   C4   1       0.3325   0.5097
  sn3   C7   1       0.3325   0.5097
  sn3   C8   1       0.3325   0.5097
  sn3   C9   1       0.3325   0.5097
  sn3   CV   1       0.3325   0.4519
  sn3   CW   1       0.3325   0.4519
  sn3   C*   1       0.3325   0.4519
  sn3   C0   1       0.3151   1.0449
  sn3    F   1       0.3184   0.3806
  sn3    H   1       0.2160   0.1931
  sn3   HB   1       0.2160   0.1931
  sn3   HC   1       0.2950   0.1931
  sn3   H1   1       0.2861   0.1931
  sn3   H2   1       0.2772   0.1931
  sn3   H3   1       0.2682   0.1931
  sn3   HA   1       0.2925   0.1887
  sn3   H4   1       0.2880   0.1887
  sn3   H5   1       0.2836   0.1887
  sn3   HO   1       0.1625   0.0000
  sn3   HS   1       0.2160   0.1931
  sn3   HW   1       0.1625   0.0000
  sn3   HP   1       0.2605   0.1931
  sn3    I   1       0.3719   0.9746
  sn3   Cl   1       0.3826   0.4873
  sn3   Na   1       0.3289   0.0811
  sn3   IB   1       0.6079   0.4873
  sn3   MG   1       0.2331   1.4576
  sn3    N   1       0.3250   0.6354
  sn3   NA   1       0.3250   0.6354
  sn3   NB   1       0.3250   0.6354
  sn3   NC   1       0.3250   0.6354
  sn3   N2   1       0.3250   0.6354
  sn3   N3   1       0.3250   0.6354
  sn3   N*   1       0.3250   0.6354
  sn3    O   1       0.3105   0.7062
  sn3   OB   1       0.3105   0.7062
  sn3   OW   1       0.3200   0.6010
  sn3   OH   1       0.3158   0.7069
  sn3   O3   1       0.3158   0.7069
  sn3   OS   1       0.3125   0.6354
  sn3   O2   1       0.3105   0.7062
  sn3    P   1       0.3496   0.6892
  sn3    S   1       0.3407   0.7705
  sn3   SH   1       0.3407   0.7705
  sn3   CU   1       0.3325   0.4519
  sn3   FE   1       0.1625   0.0000
  sn3    K   1       0.3993   0.0279
  sn3   Rb   1       0.4258   0.0201
  sn3   Li   1       0.2638   0.2085
  sn3   Zn   1       0.2605   0.1723
  sn3 HW_tip4pew   1       0.1625   0.0000
  sn3 OW_tip4pew   1       0.3207   0.6217
  sn3 HW_tip4p   1       0.1625   0.0000
  sn3 OW_tip4p   1       0.3202   0.6067
  sn3 HW_tip5p   1       0.1625   0.0000
  sn3 OW_tip5p   1       0.3185   0.6164
  sn3 HW_tip4pd   1       0.1625   0.0000
  sn3 OW_tip4pd   1       0.3207   0.7530
  sn3   MW   1       0.1625   0.0000
  sn3 MCH3   1       0.1625   0.0000
  sn3 MNH3   1       0.1625   0.0000
  sn3   c3   1       0.3325   0.5097
  sn3   hc   1       0.2950   0.1931
  sn3    c   1       0.3325   0.4519
  sn3    o   1       0.3105   0.7062
  sn3    n   1       0.3250   0.6354
  sn3   h1   1       0.2861   0.1931
  sn3   ca   1       0.3325   0.4519
  sn3   ha   1       0.2925   0.1887
  sn3   n3   1       0.3250   0.6354
  sn3   hx   1       0.2605   0.1931
  sn3   n4   1       0.3250   0.6354
  sn3   hn   1       0.2160   0.1931
  shx   Br   1       0.0980   0.0000
  shx    C   1       0.2680   0.1373
  shx   C6   1       0.2680   0.1373
  shx   C5   1       0.2680   0.1373
  shx   CA   1       0.2680   0.1373
  shx   CB   1       0.2680   0.1373
  shx   CC   1       0.2680   0.1373
  shx   CK   1       0.2680   0.1373
  shx   CM   1       0.2680   0.1373
  shx   CN   1       0.2680   0.1373
  shx   CQ   1       0.2680   0.1373
  shx   CR   1       0.2680   0.1373
  shx   CT   1       0.2680   0.1549
  shx   C1   1       0.2680   0.1549
  shx   C3   1       0.2680   0.1549
  shx   C4   1       0.2680   0.1549
  shx   C7   1       0.2680   0.1549
  shx   C8   1       0.2680   0.1549
  shx   C9   1       0.2680   0.1549
  shx   CV   1       0.2680   0.1373
  shx   CW   1       0.2680   0.1373
  shx   C*   1       0.2680   0.1373
  shx   C0   1       0.2506   0.3175
  shx    F   1       0.2539   0.1157
  shx    H   1       0.1515   0.0587
  shx   HB   1       0.1515   0.0587
  shx   HC   1       0.2305   0.0587
  shx   H1   1       0.2216   0.0587
  shx   H2   1       0.2127   0.0587
  shx   H3   1       0.2037   0.0587
  shx   HA   1       0.2280   0.0574
  shx   H4   1       0.2235   0.0574
  shx   H5   1       0.2191   0.0574
  shx   HO   1       0.0980   0.0000
  shx   HS   1       0.1515   0.0587
  shx   HW   1       0.0980   0.0000
  shx   HP   1       0.1960   0.0587
  shx    I   1       0.3074   0.2962
  shx   Cl   1       0.3181   0.1481
  shx   Na   1       0.2644   0.0246
  shx   IB   1       0.5434   0.1481
  shx   MG   1       0.1686   0.4430
  shx    N   1       0.2605   0.1931
  shx   NA   1       0.2605   0.1931
  shx   NB   1       0.2605   0.1931
  shx   NC   1       0.2605   0.1931
  shx   N2   1       0.2605   0.1931
  shx   N3   1       0.2605   0.1931
  shx   N*   1       0.2605   0.1931
  shx    O   1       0.2460   0.2146
  shx   OB   1       0.2460   0.2146
  shx   OW   1       0.2555   0.1826
  shx   OH   1       0.2513   0.2148
  shx   O3   1       0.2513   0.2148
  shx   OS   1       0.2480   0.1931
  shx   O2   1       0.2460   0.2146
  shx    P   1       0.2851   0.2094
  shx    S   1       0.2762   0.2342
  shx   SH   1       0.2762   0.2342
  shx   CU   1       0.2680   0.1373
  shx   FE   1       0.0980   0.0000
  shx    K   1       0.3348   0.0085
  shx   Rb   1       0.3613   0.0061
  shx   Li   1       0.1993   0.0634
  shx   Zn   1       0.1960   0.0524
  shx HW_tip4pew   1       0.0980   0.0000
  shx OW_tip4pew   1       0.2562   0.1889
  shx HW_tip4p   1       0.0980   0.0000
  shx OW_tip4p   1       0.2557   0.1844
  shx HW_tip5p   1       0.0980   0.0000
  shx OW_tip5p   1       0.2540   0.1873
  shx HW_tip4pd   1       0.0980   0.0000
  shx OW_tip4pd   1       0.2562   0.2288
  shx   MW   1       0.0980   0.0000
  shx MCH3   1       0.0980   0.0000
  shx MNH3   1       0.0980   0.0000
  shx   c3   1       0.2680   0.1549
  shx   hc   1       0.2305   0.0587
  shx    c   1       0.2680   0.1373
  shx    o   1       0.2460   0.2146
  shx    n   1       0.2605   0.1931
  shx   h1   1       0.2216   0.0587
  shx   ca   1       0.2680   0.1373
  shx   ha   1       0.2280   0.0574
  shx   n3   1       0.2605   0.1931
  shx   hx   1       0.1960   0.0587
  shx   n4   1       0.2605   0.1931
  shx   hn   1       0.1515   0.0587
  sn4   Br   1       0.1625   0.0000
  sn4    C   1       0.3325   0.4519
  sn4   C6   1       0.3325   0.4519
  sn4   C5   1       0.3325   0.4519
  sn4   CA   1       0.3325   0.4519
  sn4   CB   1       0.3325   0.4519
  sn4   CC   1       0.3325   0.4519
  sn4   CK   1       0.3325   0.4519
  sn4   CM   1       0.3325   0.4519
  sn4   CN   1       0.3325   0.4519
  sn4   CQ   1       0.3325   0.4519
  sn4   CR   1       0.3325   0.4519
  sn4   CT   1       0.3325   0.5097
  sn4   C1   1       0.3325   0.5097
  sn4   C3   1       0.3325   0.5097
  sn4   C4   1       0.3325   0.5097
  sn4   C7   1       0.3325   0.5097
  sn4   C8   1       0.3325   0.5097
  sn4   C9   1       0.3325   0.5097
  sn4   CV   1       0.3325   0.4519
  sn4   CW   1       0.3325   0.4519
  sn4   C*   1       0.3325   0.4519
  sn4   C0   1       0.3151   1.0449
  sn4    F   1       0.3184   0.3806
  sn4    H   1       0.2160   0.1931
  sn4   HB   1       0.2160   0.1931
  sn4   HC   1       0.2950   0.1931
  sn4   H1   1       0.2861   0.1931
  sn4   H2   1       0.2772   0.1931
  sn4   H3   1       0.2682   0.1931
  sn4   HA   1       0.2925   0.1887
  sn4   H4   1       0.2880   0.1887
  sn4   H5   1       0.2836   0.1887
  sn4   HO   1       0.1625   0.0000
  sn4   HS   1       0.2160   0.1931
  sn4   HW   1       0.1625   0.0000
  sn4   HP   1       0.2605   0.1931
  sn4    I   1       0.3719   0.9746
  sn4   Cl   1       0.3826   0.4873
  sn4   Na   1       0.3289   0.0811
  sn4   IB   1       0.6079   0.4873
  sn4   MG   1       0.2331   1.4576
  sn4    N   1       0.3250   0.6354
  sn4   NA   1       0.3250   0.6354
  sn4   NB   1       0.3250   0.6354
  sn4   NC   1       0.3250   0.6354
  sn4   N2   1       0.3250   0.6354
  sn4   N3   1       0.3250   0.6354
  sn4   N*   1       0.3250   0.6354
  sn4    O   1       0.3105   0.7062
  sn4   OB   1       0.3105   0.7062
  sn4   OW   1       0.3200   0.6010
  sn4   OH   1       0.3158   0.7069
  sn4   O3   1       0.3158   0.7069
  sn4   OS   1       0.3125   0.6354
  sn4   O2   1       0.3105   0.7062
  sn4    P   1       0.3496   0.6892
  sn4    S   1       0.3407   0.7705
  sn4   SH   1       0.3407   0.7705
  sn4   CU   1       0.3325   0.4519
  sn4   FE   1       0.1625   0.0000
  sn4    K   1       0.3993   0.0279
  sn4   Rb   1       0.4258   0.0201
  sn4   Li   1       0.2638   0.2085
  sn4   Zn   1       0.2605   0.1723
  sn4 HW_tip4pew   1       0.1625   0.0000
  sn4 OW_tip4pew   1       0.3207   0.6217
  sn4 HW_tip4p   1       0.1625   0.0000
  sn4 OW_tip4p   1       0.3202   0.6067
  sn4 HW_tip5p   1       0.1625   0.0000
  sn4 OW_tip5p   1       0.3185   0.6164
  sn4 HW_tip4pd   1       0.1625   0.0000
  sn4 OW_tip4pd   1       0.3207   0.7530
  sn4   MW   1       0.1625   0.0000
  sn4 MCH3   1       0.1625   0.0000
  sn4 MNH3   1       0.1625   0.0000
  sn4   c3   1       0.3325   0.5097
  sn4   hc   1       0.2950   0.1931
  sn4    c   1       0.3325   0.4519
  sn4    o   1       0.3105   0.7062
  sn4    n   1       0.3250   0.6354
  sn4   h1   1       0.2861   0.1931
  sn4   ca   1       0.3325   0.4519
  sn4   ha   1       0.2925   0.1887
  sn4   n3   1       0.3250   0.6354
  sn4   hx   1       0.2605   0.1931
  sn4   n4   1       0.3250   0.6354
  sn4   hn   1       0.2160   0.1931
  shn   Br   1       0.0535   0.0000
  shn    C   1       0.2234   0.1373
  shn   C6   1       0.2234   0.1373
  shn   C5   1       0.2234   0.1373
  shn   CA   1       0.2234   0.1373
  shn   CB   1       0.2234   0.1373
  shn   CC   1       0.2234   0.1373
  shn   CK   1       0.2234   0.1373
  shn   CM   1       0.2234   0.1373
  shn   CN   1       0.2234   0.1373
  shn   CQ   1       0.2234   0.1373
  shn   CR   1       0.2234   0.1373
  shn   CT   1       0.2234   0.1549
  shn   C1   1       0.2234   0.1549
  shn   C3   1       0.2234   0.1549
  shn   C4   1       0.2234   0.1549
  shn   C7   1       0.2234   0.1549
  shn   C8   1       0.2234   0.1549
  shn   C9   1       0.2234   0.1549
  shn   CV   1       0.2234   0.1373
  shn   CW   1       0.2234   0.1373
  shn   C*   1       0.2234   0.1373
  shn   C0   1       0.2061   0.3175
  shn    F   1       0.2094   0.1157
  shn    H   1       0.1069   0.0587
  shn   HB   1       0.1069   0.0587
  shn   HC   1       0.1859   0.0587
  shn   H1   1       0.1770   0.0587
  shn   H2   1       0.1681   0.0587
  shn   H3   1       0.1592   0.0587
  shn   HA   1       0.1834   0.0574
  shn   H4   1       0.1790   0.0574
  shn   H5   1       0.1745   0.0574
  shn   HO   1       0.0535   0.0000
  shn   HS   1       0.1069   0.0587
  shn   HW   1       0.0535   0.0000
  shn   HP   1       0.1515   0.0587
  shn    I   1       0.2628   0.2962
  shn   Cl   1       0.2735   0.1481
  shn   Na   1       0.2199   0.0246
  shn   IB   1       0.4989   0.1481
  shn   MG   1       0.1241   0.4430
  shn    N   1       0.2160   0.1931
  shn   NA   1       0.2160   0.1931
  shn   NB   1       0.2160   0.1931
  shn   NC   1       0.2160   0.1931
  shn   N2   1       0.2160   0.1931
  shn   N3   1       0.2160   0.1931
  shn   N*   1       0.2160   0.1931
  shn    O   1       0.2014   0.2146
  shn   OB   1       0.2014   0.2146
  shn   OW   1       0.2110   0.1826
  shn   OH   1       0.2068   0.2148
  shn   O3   1       0.2068   0.2148
  shn   OS   1       0.2035   0.1931
  shn   O2   1       0.2014   0.2146
  shn    P   1       0.2405   0.2094
  shn    S   1       0.2316   0.2342
  shn   SH   1       0.2316   0.2342
  shn   CU   1       0.2234   0.1373
  shn   FE   1       0.0535   0.0000
  shn    K   1       0.2903   0.0085
  shn   Rb   1       0.3168   0.0061
  shn   Li   1       0.1547   0.0634
  shn   Zn   1       0.1515   0.0524
  shn HW_tip4pew   1       0.0535   0.0000
  shn OW_tip4pew   1       0.2117   0.1889
  shn HW_tip4p   1       0.0535   0.0000
  shn OW_tip4p   1       0.2111   0.1844
  shn HW_tip5p   1       0.0535   0.0000
  shn OW_tip5p   1       0.2095   0.1873
  shn HW_tip4pd   1       0.0535   0.0000
  shn OW_tip4pd   1       0.2117   0.2288
  shn   MW   1       0.0535   0.0000
  shn MCH3   1       0.0535   0.0000
  shn MNH3   1       0.0535   0.0000
  shn   c3   1       0.2234   0.1549
  shn   hc   1       0.1859   0.0587
  shn    c   1       0.2234   0.1373
  shn    o   1       0.2014   0.2146
  shn    n   1       0.2160   0.1931
  shn   h1   1       0.1770   0.0587
  shn   ca   1       0.2234   0.1373
  shn   ha   1       0.1834   0.0574
  shn   n3   1       0.2160   0.1931
  shn   hx   1       0.1515   0.0587
  shn   n4   1       0.2160   0.1931
  shn   hn   1       0.1069   0.0587

 [ bondtypes ] 
; i    j  func       b0          kb
 C   C1      1    0.15220  265265.6  ; Amber99Sb-disp
 C1  H1      1    0.10900  284512.0  ; Amber99Sb-disp
 C1  N       1    0.14490  282001.6  ; Amber99Sb-disp
 C1  N3      1    0.14710  307105.6  ; Amber99Sb-disp
 HO  O3      1    0.09600  462750.4  ; Amber99Sb-disp
 C8  O3      1    0.14100  267776.0  ; Amber99Sb-disp
 C8  OH      1    0.14100  267776.0  ; Amber99Sb-disp
 CT  C8      1    0.15260  259408.0  ; Amber99Sb-disp
 CT  C9      1    0.15260  259408.0  ; Amber99Sb-disp
 C9  HC      1    0.10900  284512.0  ; Amber99Sb-disp
 C9  H1      1    0.10900  284512.0  ; Amber99Sb-disp
 C9  S       1    0.18100  189953.6  ; Amber99Sb-disp
 C9  C       1    0.15220  265265.6  ; Amber99Sb-disp
 C8  H1      1    0.10900  284512.0  ; Amber99Sb-disp
 C8  HC      1    0.10900  284512.0  ; Amber99Sb-disp
 OW  HW      1    0.09572  462750.4  ; Amber99Sb-disp
 HW  HW      1    0.15136  462750.4  ; Amber99Sb-disp
 C   C       1    0.15250  259408.0  ; Amber99Sb-disp
 C   CA      1    0.14090  392459.2  ; Amber99Sb-disp
 C   CB      1    0.14190  374049.6  ; Amber99Sb-disp
 C   CM      1    0.14440  343088.0  ; Amber99Sb-disp
 C   CT      1    0.15220  265265.6  ; Amber99Sb-disp
 C   N       1    0.13350  410032.0  ; Amber99Sb-disp
 C   N*      1    0.13830  354803.2  ; Amber99Sb-disp
 C   NA      1    0.13880  349782.4  ; Amber99Sb-disp
 C   NC      1    0.13580  382417.6  ; Amber99Sb-disp
 C   O       1    0.12290  476976.0  ; Amber99Sb-disp
 C   OB      1    0.12290  476976.0  ; Amber99Sb-disp
 C   O2      1    0.12500  548940.8  ; Amber99Sb-disp
 C   OH      1    0.13640  376560.0  ; Amber99Sb-disp
 C   OS      1    0.13230  376560.0  ; Amber99Sb-disp
 C   H4      1    0.10800  307105.6  ; Amber99Sb-disp
 C   H5      1    0.10800  307105.6  ; Amber99Sb-disp
 CA  CA      1    0.14000  392459.2  ; Amber99Sb-disp
 CA  CB      1    0.14040  392459.2  ; Amber99Sb-disp
 CA  CM      1    0.14330  357313.6  ; Amber99Sb-disp
 CA  CN      1    0.14000  392459.2  ; Amber99Sb-disp
 CA  CT      1    0.15100  265265.6  ; Amber99Sb-disp
 CA  HA      1    0.10800  307105.6  ; Amber99Sb-disp
 CA  H4      1    0.10800  307105.6  ; Amber99Sb-disp
 CA  N2      1    0.13400  402500.8  ; Amber99Sb-disp
 CA  NA      1    0.13810  357313.6  ; Amber99Sb-disp
 CA  NC      1    0.13390  404174.4  ; Amber99Sb-disp
 CA  OH      1    0.13640  376560.0  ; Amber99Sb-disp
 CB  CB      1    0.13700  435136.0  ; Amber99Sb-disp
 CB  N*      1    0.13740  364844.8  ; Amber99Sb-disp
 CB  NB      1    0.13910  346435.2  ; Amber99Sb-disp
 CB  NC      1    0.13540  385764.8  ; Amber99Sb-disp
 CK  H5      1    0.10800  307105.6  ; Amber99Sb-disp
 CK  N*      1    0.13710  368192.0  ; Amber99Sb-disp
 CK  NB      1    0.13040  442667.2  ; Amber99Sb-disp
 CM  CM      1    0.13500  459403.2  ; Amber99Sb-disp
 CM  CT      1    0.15100  265265.6  ; Amber99Sb-disp
 CM  HA      1    0.10800  307105.6  ; Amber99Sb-disp
 CM  H4      1    0.10800  307105.6  ; Amber99Sb-disp
 CM  H5      1    0.10800  307105.6  ; Amber99Sb-disp
 CM  N*      1    0.13650  374886.4  ; Amber99Sb-disp
 CM  OS      1    0.12400  401664.0  ; Amber99Sb-disp
 CQ  H5      1    0.10800  307105.6  ; Amber99Sb-disp
 CQ  NC      1    0.13240  420073.6  ; Amber99Sb-disp
 CT  CT      1    0.15260  259408.0  ; Amber99Sb-disp
 CT  HC      1    0.10900  284512.0  ; Amber99Sb-disp
 CT  H1      1    0.10900  284512.0  ; Amber99Sb-disp
 CT  H2      1    0.10900  284512.0  ; Amber99Sb-disp
 CT  H3      1    0.10900  284512.0  ; Amber99Sb-disp
 CT  HP      1    0.10900  284512.0  ; Amber99Sb-disp
 CT  N*      1    0.14750  282001.6  ; Amber99Sb-disp
 CT  N2      1    0.14630  282001.6  ; Amber99Sb-disp
 CT  OH      1    0.14100  267776.0  ; Amber99Sb-disp
 CT  OS      1    0.14100  267776.0  ; Amber99Sb-disp
 C*  HC      1    0.10800  307105.6  ; Amber99Sb-disp
 C*  CB      1    0.14590  324678.4  ; Amber99Sb-disp
 C*  CT      1    0.14950  265265.6  ; Amber99Sb-disp
 C*  CW      1    0.13520  456892.8  ; Amber99Sb-disp
 CB  CN      1    0.14190  374049.6  ; Amber99Sb-disp
 CC  CT      1    0.15040  265265.6  ; Amber99Sb-disp
 CC  CV      1    0.13750  428441.6  ; Amber99Sb-disp
 CC  CW      1    0.13710  433462.4  ; Amber99Sb-disp
 CC  NA      1    0.13850  353129.6  ; Amber99Sb-disp
 CC  NB      1    0.13940  343088.0  ; Amber99Sb-disp
 CN  NA      1    0.13800  358150.4  ; Amber99Sb-disp
 CR  H5      1    0.10800  307105.6  ; Amber99Sb-disp
 CR  NA      1    0.13430  399153.6  ; Amber99Sb-disp
 CR  NB      1    0.13350  408358.4  ; Amber99Sb-disp
 CT  N       1    0.14490  282001.6  ; Amber99Sb-disp
 CT  N3      1    0.14710  307105.6  ; Amber99Sb-disp
 CT  S       1    0.18100  189953.6  ; Amber99Sb-disp
 CT  SH      1    0.18100  198321.6  ; Amber99Sb-disp
 CV  H4      1    0.10800  307105.6  ; Amber99Sb-disp
 CV  NB      1    0.13940  343088.0  ; Amber99Sb-disp
 CW  H4      1    0.10800  307105.6  ; Amber99Sb-disp
 CW  NA      1    0.13810  357313.6  ; Amber99Sb-disp
 O2  P       1    0.14800  439320.0  ; Amber99Sb-disp
 OH  P       1    0.16100  192464.0  ; Amber99Sb-disp
 OS  P       1    0.16100  192464.0  ; Amber99Sb-disp
 H   N2      1    0.10100  363171.2  ; Amber99Sb-disp
 H   N*      1    0.10100  363171.2  ; Amber99Sb-disp
 H   NA      1    0.10100  363171.2  ; Amber99Sb-disp
 H   N       1    0.10100  363171.2  ; Amber99Sb-disp
 HB  N       1    0.10100  363171.2  ; Amber99Sb-disp
 H   N3      1    0.10100  363171.2  ; Amber99Sb-disp
 HO  OH      1    0.09600  462750.4  ; Amber99Sb-disp
 HO  OS      1    0.09600  462750.4  ; Amber99Sb-disp
 HS  SH      1    0.13360  229283.2  ; Amber99Sb-disp
 S   S       1    0.20380  138908.8  ; Amber99Sb-disp
 F   CT      1    0.13800  307105.6  ; Amber99Sb-disp
 Cl  CT      1    0.17660  194137.6  ; Amber99Sb-disp
 Br  CT      1    0.19440  133051.2  ; Amber99Sb-disp
 I   CT      1    0.21660  123846.4  ; Amber99Sb-disp
 F   CA      1    0.13590  323004.8  ; Amber99Sb-disp
 Cl  CA      1    0.17270  161502.4  ; Amber99Sb-disp
 I   CA      1    0.20750  143092.8  ; Amber99Sb-disp
 Br  CA      1    0.18900  143929.6  ; Amber99Sb-disp
 C7  CT      1    0.15260  259408.0  ; Amber99Sb-disp
 C   C7      1    0.15220  265265.6  ; Amber99Sb-disp
 C7  H1      1    0.10900  284512.0  ; Amber99Sb-disp
 C7  HP      1    0.10900  284512.0  ; Amber99Sb-disp
 C7  N       1    0.14490  282001.6  ; Amber99Sb-disp
 C7  N3      1    0.14710  307105.6  ; Amber99Sb-disp
 C3  HC      1    0.10900  284512.0  ; Amber99Sb-disp
 C4  HC      1    0.10900  284512.0  ; Amber99Sb-disp
 CT  C3      1    0.15260  259408.0  ; Amber99Sb-disp
 CT  C4      1    0.15260  259408.0  ; Amber99Sb-disp
 C6  O2      1    0.12500  548940.8  ; Amber99Sb-disp
 CC  O2      1    0.12500  548940.8  ; Amber99Sb-disp
 C5  O       1    0.12290  476976.0  ; Amber99Sb-disp
 C5  N       1    0.13350  410032.0  ; Amber99Sb-disp
 C5  CT      1    0.15220  265265.6  ; Amber99Sb-disp
 C6  CT      1    0.15220  265265.6  ; Amber99Sb-disp
 C1  HP      1    0.10900  284512.0  ; Amber99Sb-disp

 [ constrainttypes ] 
; this section is implemented manually from bond * angle values
; constraints for rigid CH3 groups
 MCH3   CT      2    0.166426
 MCH3   S       2    0.193875
 MCH3   MCH3    2    0.092163
; constraints for rigid NH3 groups
 MNH3   CT      2    0.158254
 MNH3   MNH3    2    0.080229
; angle-derived constraints for OH and SH groups in proteins
; The constraint A-C is calculated from the angle A-B-C and bonds A-B, B-C.
  C     HO      2    0.195074
  CA    HO      2    0.195074
  CT    HO      2    0.194132
  CT    HS      2    0.235935

 [ angletypes ] 
;  i    j    k  func       th0       cth
 C1  C   OH     1    110.000  669.440  ; Amber99Sb-disp
 C1  C   O      1    120.400  669.440  ; Amber99Sb-disp
 C1  C   OB     1    120.400  669.440  ; Amber99Sb-disp
 C1  C   O2     1    117.000  585.760  ; Amber99Sb-disp
 C1  C   N      1    116.600  585.760  ; Amber99Sb-disp
 H1  C1  H1     1    109.500  292.880  ; Amber99Sb-disp
 H1  C1  N      1    109.500  418.400  ; Amber99Sb-disp
 H1  C1  N3     1    109.500  418.400  ; Amber99Sb-disp
 C   C1  H1     1    109.500  418.400  ; Amber99Sb-disp
 C   C1  N      1    110.100  527.184  ; Amber99Sb-disp
 C   C1  N3     1    111.200  669.440  ; Amber99Sb-disp
 C   N   C1     1    121.900  418.400  ; Amber99Sb-disp
 C1  N   H      1    118.040  418.400  ; Amber99Sb-disp
 C1  N   HB     1    118.040  418.400  ; Amber99Sb-disp
 C1  N3  H      1    109.500  418.400  ; Amber99Sb-disp
 H1  C8  H1     1    109.500  292.880  ; Amber99Sb-disp
 H1  C8  O3     1    109.500  418.400  ; Amber99Sb-disp
 CT  C8  O3     1    109.500  418.400  ; Amber99Sb-disp
 C8  O3  HO     1    108.500  460.240  ; Amber99Sb-disp
 H1  C8  OH     1    109.500  418.400  ; Amber99Sb-disp
 CT  C8  OH     1    109.500  418.400  ; Amber99Sb-disp
 C8  OH  HO     1    108.500  460.240  ; Amber99Sb-disp
 CT  C8  CT     1    109.500  334.720  ; Amber99Sb-disp
 CT  C8  H1     1    109.500  418.400  ; Amber99Sb-disp
 CT  C8  HC     1    109.500  418.400  ; Amber99Sb-disp
 CT  C9  H1     1    109.500  418.400  ; Amber99Sb-disp
 H1  C9  S      1    109.500  418.400  ; Amber99Sb-disp
 CT  C9  S      1    114.700  418.400  ; Amber99Sb-disp
 C9  S   CT     1     98.900  518.816  ; Amber99Sb-disp
 CT  C9  HC     1    109.500  418.400  ; Amber99Sb-disp
 CT  C9  CT     1    109.500  334.720  ; Amber99Sb-disp
 C9  CT  CT     1    109.500  334.720  ; Amber99Sb-disp
 HC  C9  HC     1    109.500  292.880  ; Amber99Sb-disp
 C9  CT  HC     1    109.500  418.400  ; Amber99Sb-disp
 C9  CT  H1     1    109.500  418.400  ; Amber99Sb-disp
 H1  C9  H1     1    109.500  292.880  ; Amber99Sb-disp
 C9  C   O      1    120.400  669.440  ; Amber99Sb-disp
 C9  C   O2     1    117.000  585.760  ; Amber99Sb-disp
 C9  C   OH     1    110.000  669.440  ; Amber99Sb-disp
 C9  C   N      1    116.600  585.760  ; Amber99Sb-disp
 C   C9  CT     1    111.100  527.184  ; Amber99Sb-disp
 C   C9  HC     1    109.500  418.400  ; Amber99Sb-disp
 C9  CT  N2     1    111.200  669.440  ; Amber99Sb-disp
 C8  CT  N      1    109.700  669.440  ; Amber99Sb-disp
 C   CT  C8     1    111.100  527.184  ; Amber99Sb-disp
 C8  CT  HC     1    109.500  418.400  ; Amber99Sb-disp
 C8  CT  H1     1    109.500  418.400  ; Amber99Sb-disp
 H4  C   N      1    120.000  418.400  ; Amber99Sb-disp
 HW  OW  HW     1    104.520  836.800  ; Amber99Sb-disp
 HW  HW  OW     1    127.740    0.000  ; Amber99Sb-disp
 C   C   O      1    120.000  669.440  ; Amber99Sb-disp
 C   C   OH     1    120.000  669.440  ; Amber99Sb-disp
 CA  C   CA     1    120.000  527.184  ; Amber99Sb-disp
 CA  C   OH     1    120.000  585.760  ; Amber99Sb-disp
 CB  C   NA     1    111.300  585.760  ; Amber99Sb-disp
 CB  C   O      1    128.800  669.440  ; Amber99Sb-disp
 CM  C   NA     1    114.100  585.760  ; Amber99Sb-disp
 CM  C   O      1    125.300  669.440  ; Amber99Sb-disp
 CT  C   O      1    120.400  669.440  ; Amber99Sb-disp
 CT  C   OB     1    120.400  669.440  ; Amber99Sb-disp
 CT  C   O2     1    117.000  585.760  ; Amber99Sb-disp
 CT  C   N      1    116.600  585.760  ; Amber99Sb-disp
 CT  C   CT     1    117.000  527.184  ; Amber99Sb-disp
 CT  C   OS     1    115.000  669.440  ; Amber99Sb-disp
 CT  C   OH     1    110.000  669.440  ; Amber99Sb-disp
 N*  C   NA     1    115.400  585.760  ; Amber99Sb-disp
 N*  C   NC     1    118.600  585.760  ; Amber99Sb-disp
 N*  C   O      1    120.900  669.440  ; Amber99Sb-disp
 NA  C   O      1    120.600  669.440  ; Amber99Sb-disp
 NC  C   O      1    122.500  669.440  ; Amber99Sb-disp
 N   C   O      1    122.900  669.440  ; Amber99Sb-disp
 N   C   OB     1    122.900  669.440  ; Amber99Sb-disp
 O   C   O      1    126.000  669.440  ; Amber99Sb-disp
 O   C   OH     1    120.000  669.440  ; Amber99Sb-disp
 O   C   OS     1    125.000  669.440  ; Amber99Sb-disp
 O2  C   O2     1    126.000  669.440  ; Amber99Sb-disp
 H4  C   C      1    120.000  418.400  ; Amber99Sb-disp
 H4  C   CM     1    115.000  418.400  ; Amber99Sb-disp
 H4  C   CT     1    115.000  418.400  ; Amber99Sb-disp
 H4  C   O      1    120.000  418.400  ; Amber99Sb-disp
 H4  C   OH     1    120.000  418.400  ; Amber99Sb-disp
 H5  C   N      1    120.000  418.400  ; Amber99Sb-disp
 H5  C   O      1    119.000  418.400  ; Amber99Sb-disp
 H5  C   OH     1    107.000  418.400  ; Amber99Sb-disp
 H5  C   OS     1    107.000  418.400  ; Amber99Sb-disp
 C   CA  CA     1    120.000  527.184  ; Amber99Sb-disp
 C   CA  HA     1    120.000  418.400  ; Amber99Sb-disp
 CA  CA  CA     1    120.000  527.184  ; Amber99Sb-disp
 CA  CA  CB     1    120.000  527.184  ; Amber99Sb-disp
 CA  CA  CT     1    120.000  585.760  ; Amber99Sb-disp
 CA  CA  HA     1    120.000  418.400  ; Amber99Sb-disp
 CA  CA  H4     1    120.000  418.400  ; Amber99Sb-disp
 CA  CA  OH     1    120.000  585.760  ; Amber99Sb-disp
 CA  CA  CN     1    120.000  527.184  ; Amber99Sb-disp
 CB  CA  HA     1    120.000  418.400  ; Amber99Sb-disp
 CB  CA  H4     1    120.000  418.400  ; Amber99Sb-disp
 CB  CA  N2     1    123.500  585.760  ; Amber99Sb-disp
 CB  CA  NC     1    117.300  585.760  ; Amber99Sb-disp
 CM  CA  N2     1    120.100  585.760  ; Amber99Sb-disp
 CM  CA  NC     1    121.500  585.760  ; Amber99Sb-disp
 CN  CA  HA     1    120.000  418.400  ; Amber99Sb-disp
 NA  CA  NC     1    123.300  585.760  ; Amber99Sb-disp
 N2  CA  NA     1    116.000  585.760  ; Amber99Sb-disp
 N2  CA  NC     1    119.300  585.760  ; Amber99Sb-disp
 N2  CA  N2     1    120.000  585.760  ; Amber99Sb-disp
 F   CA  CA     1    121.000  585.760  ; Amber99Sb-disp
 Cl  CA  CA     1    118.800  585.760  ; Amber99Sb-disp
 I   CA  CA     1    118.800  585.760  ; Amber99Sb-disp
 C   CB  CB     1    119.200  527.184  ; Amber99Sb-disp
 C   CB  NB     1    130.000  585.760  ; Amber99Sb-disp
 CA  CB  CB     1    117.300  527.184  ; Amber99Sb-disp
 CA  CB  NB     1    132.400  585.760  ; Amber99Sb-disp
 CB  CB  N*     1    106.200  585.760  ; Amber99Sb-disp
 CB  CB  NB     1    110.400  585.760  ; Amber99Sb-disp
 CB  CB  NC     1    127.700  585.760  ; Amber99Sb-disp
 C*  CB  CA     1    134.900  527.184  ; Amber99Sb-disp
 C*  CB  CN     1    108.800  527.184  ; Amber99Sb-disp
 CA  CB  CN     1    116.200  527.184  ; Amber99Sb-disp
 N*  CB  NC     1    126.200  585.760  ; Amber99Sb-disp
 H5  CK  N*     1    123.050  418.400  ; Amber99Sb-disp
 H5  CK  NB     1    123.050  418.400  ; Amber99Sb-disp
 N*  CK  NB     1    113.900  585.760  ; Amber99Sb-disp
 C   CM  CM     1    120.700  527.184  ; Amber99Sb-disp
 C   CM  CT     1    119.700  585.760  ; Amber99Sb-disp
 C   CM  HA     1    119.700  418.400  ; Amber99Sb-disp
 C   CM  H4     1    119.700  418.400  ; Amber99Sb-disp
 CA  CM  CM     1    117.000  527.184  ; Amber99Sb-disp
 CA  CM  HA     1    123.300  418.400  ; Amber99Sb-disp
 CA  CM  H4     1    123.300  418.400  ; Amber99Sb-disp
 CM  CM  CT     1    119.700  585.760  ; Amber99Sb-disp
 CM  CM  HA     1    119.700  418.400  ; Amber99Sb-disp
 CM  CM  H4     1    119.700  418.400  ; Amber99Sb-disp
 CM  CM  N*     1    121.200  585.760  ; Amber99Sb-disp
 CM  CM  OS     1    125.000  669.440  ; Amber99Sb-disp
 H4  CM  N*     1    119.100  418.400  ; Amber99Sb-disp
 H4  CM  OS     1    113.000  418.400  ; Amber99Sb-disp
 HA  CM  HA     1    120.000  292.880  ; Amber99Sb-disp
 HA  CM  CT     1    120.000  418.400  ; Amber99Sb-disp
 NC  CQ  NC     1    129.100  585.760  ; Amber99Sb-disp
 H5  CQ  NC     1    115.450  418.400  ; Amber99Sb-disp
 H1  CT  H1     1    109.500  292.880  ; Amber99Sb-disp
 H1  CT  N*     1    109.500  418.400  ; Amber99Sb-disp
 H1  CT  OH     1    109.500  418.400  ; Amber99Sb-disp
 H1  CT  OS     1    109.500  418.400  ; Amber99Sb-disp
 H1  CT  CM     1    109.500  418.400  ; Amber99Sb-disp
 H1  CT  N      1    109.500  418.400  ; Amber99Sb-disp
 H1  CT  S      1    109.500  418.400  ; Amber99Sb-disp
 H1  CT  SH     1    109.500  418.400  ; Amber99Sb-disp
 H1  CT  N2     1    109.500  418.400  ; Amber99Sb-disp
 H2  CT  H2     1    109.500  292.880  ; Amber99Sb-disp
 H2  CT  N*     1    109.500  418.400  ; Amber99Sb-disp
 H2  CT  OS     1    109.500  418.400  ; Amber99Sb-disp
 HP  CT  HP     1    109.500  292.880  ; Amber99Sb-disp
 HP  CT  N3     1    109.500  418.400  ; Amber99Sb-disp
 HC  CT  HC     1    109.500  292.880  ; Amber99Sb-disp
 HC  CT  CM     1    109.500  418.400  ; Amber99Sb-disp
 C   CT  H1     1    109.500  418.400  ; Amber99Sb-disp
 C   CT  HP     1    109.500  418.400  ; Amber99Sb-disp
 C   CT  HC     1    109.500  418.400  ; Amber99Sb-disp
 C   CT  N      1    110.100  527.184  ; Amber99Sb-disp
 C   CT  N3     1    111.200  669.440  ; Amber99Sb-disp
 C   CT  CT     1    111.100  527.184  ; Amber99Sb-disp
 C   CT  OS     1    109.500  502.080  ; Amber99Sb-disp
 CA  CT  HC     1    109.500  418.400  ; Amber99Sb-disp
 CC  CT  CT     1    113.100  527.184  ; Amber99Sb-disp
 CC  CT  HC     1    109.500  418.400  ; Amber99Sb-disp
 CM  CT  CT     1    111.000  527.184  ; Amber99Sb-disp
 CM  CT  OS     1    109.500  418.400  ; Amber99Sb-disp
 CT  CT  CT     1    109.500  334.720  ; Amber99Sb-disp
 CT  CT  HC     1    109.500  418.400  ; Amber99Sb-disp
 CT  CT  H1     1    109.500  418.400  ; Amber99Sb-disp
 CT  CT  H2     1    109.500  418.400  ; Amber99Sb-disp
 CT  CT  HP     1    109.500  418.400  ; Amber99Sb-disp
 CT  CT  N*     1    109.500  418.400  ; Amber99Sb-disp
 CT  CT  OH     1    109.500  418.400  ; Amber99Sb-disp
 CT  CT  OS     1    109.500  418.400  ; Amber99Sb-disp
 CT  CT  S      1    114.700  418.400  ; Amber99Sb-disp
 CT  CT  SH     1    108.600  418.400  ; Amber99Sb-disp
 CT  CT  CA     1    114.000  527.184  ; Amber99Sb-disp
 CT  CT  N2     1    111.200  669.440  ; Amber99Sb-disp
 CT  CT  N      1    109.700  669.440  ; Amber99Sb-disp
 CT  CT  N3     1    111.200  669.440  ; Amber99Sb-disp
 C*  CT  CT     1    115.600  527.184  ; Amber99Sb-disp
 C*  CT  HC     1    109.500  418.400  ; Amber99Sb-disp
 OS  CT  OS     1    101.000 1338.880  ; Amber99Sb-disp
 OS  CT  N*     1    109.500  418.400  ; Amber99Sb-disp
 F   CT  F      1    109.100  644.336  ; Amber99Sb-disp
 F   CT  H1     1    109.500  418.400  ; Amber99Sb-disp
 F   CT  CT     1    109.000  418.400  ; Amber99Sb-disp
 F   CT  H2     1    109.500  418.400  ; Amber99Sb-disp
 Cl  CT  CT     1    108.500  418.400  ; Amber99Sb-disp
 Cl  CT  H1     1    108.500  418.400  ; Amber99Sb-disp
 I   CT  CT     1    106.000  418.400  ; Amber99Sb-disp
 CT  CC  NA     1    120.000  585.760  ; Amber99Sb-disp
 CT  CC  CV     1    120.000  585.760  ; Amber99Sb-disp
 CT  CC  NB     1    120.000  585.760  ; Amber99Sb-disp
 CV  CC  NA     1    120.000  585.760  ; Amber99Sb-disp
 CW  CC  NA     1    120.000  585.760  ; Amber99Sb-disp
 CW  CC  NB     1    120.000  585.760  ; Amber99Sb-disp
 CT  CC  CW     1    120.000  585.760  ; Amber99Sb-disp
 H5  CR  NA     1    120.000  418.400  ; Amber99Sb-disp
 H5  CR  NB     1    120.000  418.400  ; Amber99Sb-disp
 NA  CR  NA     1    120.000  585.760  ; Amber99Sb-disp
 NA  CR  NB     1    120.000  585.760  ; Amber99Sb-disp
 CC  CV  H4     1    120.000  418.400  ; Amber99Sb-disp
 CC  CV  NB     1    120.000  585.760  ; Amber99Sb-disp
 H4  CV  NB     1    120.000  418.400  ; Amber99Sb-disp
 CC  CW  H4     1    120.000  418.400  ; Amber99Sb-disp
 CC  CW  NA     1    120.000  585.760  ; Amber99Sb-disp
 C*  CW  H4     1    120.000  418.400  ; Amber99Sb-disp
 C*  CW  NA     1    108.700  585.760  ; Amber99Sb-disp
 H4  CW  NA     1    120.000  418.400  ; Amber99Sb-disp
 CB  C*  CT     1    128.600  585.760  ; Amber99Sb-disp
 CB  C*  CW     1    106.400  527.184  ; Amber99Sb-disp
 CT  C*  CW     1    125.000  585.760  ; Amber99Sb-disp
 CA  CN  CB     1    122.700  527.184  ; Amber99Sb-disp
 CA  CN  NA     1    132.800  585.760  ; Amber99Sb-disp
 CB  CN  NA     1    104.400  585.760  ; Amber99Sb-disp
 C   N   CT     1    121.900  418.400  ; Amber99Sb-disp
 C   N   H      1    120.000  418.400  ; Amber99Sb-disp
 C   N   HB     1    120.000  418.400  ; Amber99Sb-disp
 CT  N   H      1    118.040  418.400  ; Amber99Sb-disp
 CT  N   HB     1    118.040  418.400  ; Amber99Sb-disp
 CT  N   CT     1    118.000  418.400  ; Amber99Sb-disp
 H   N   H      1    120.000  292.880  ; Amber99Sb-disp
 C   N*  CM     1    121.600  585.760  ; Amber99Sb-disp
 C   N*  CT     1    117.600  585.760  ; Amber99Sb-disp
 C   N*  H      1    119.200  418.400  ; Amber99Sb-disp
 CB  N*  CK     1    105.400  585.760  ; Amber99Sb-disp
 CB  N*  CT     1    125.800  585.760  ; Amber99Sb-disp
 CB  N*  H      1    125.800  418.400  ; Amber99Sb-disp
 CK  N*  CT     1    128.800  585.760  ; Amber99Sb-disp
 CK  N*  H      1    128.800  418.400  ; Amber99Sb-disp
 CM  N*  CT     1    121.200  585.760  ; Amber99Sb-disp
 CM  N*  H      1    121.200  418.400  ; Amber99Sb-disp
 CA  N2  H      1    120.000  418.400  ; Amber99Sb-disp
 CA  N2  CT     1    123.200  418.400  ; Amber99Sb-disp
 CT  N2  H      1    118.400  418.400  ; Amber99Sb-disp
 H   N2  H      1    120.000  292.880  ; Amber99Sb-disp
 CT  N3  H      1    109.500  418.400  ; Amber99Sb-disp
 CT  N3  CT     1    109.500  418.400  ; Amber99Sb-disp
 H   N3  H      1    109.500  292.880  ; Amber99Sb-disp
 C   NA  C      1    126.400  585.760  ; Amber99Sb-disp
 C   NA  CA     1    125.200  585.760  ; Amber99Sb-disp
 C   NA  H      1    116.800  418.400  ; Amber99Sb-disp
 CA  NA  H      1    118.000  418.400  ; Amber99Sb-disp
 CC  NA  CR     1    120.000  585.760  ; Amber99Sb-disp
 CC  NA  H      1    120.000  418.400  ; Amber99Sb-disp
 CR  NA  CW     1    120.000  585.760  ; Amber99Sb-disp
 CR  NA  H      1    120.000  418.400  ; Amber99Sb-disp
 CW  NA  H      1    120.000  418.400  ; Amber99Sb-disp
 CN  NA  CW     1    111.600  585.760  ; Amber99Sb-disp
 CN  NA  H      1    123.100  418.400  ; Amber99Sb-disp
 CB  NB  CK     1    103.800  585.760  ; Amber99Sb-disp
 CC  NB  CR     1    117.000  585.760  ; Amber99Sb-disp
 CR  NB  CV     1    117.000  585.760  ; Amber99Sb-disp
 C   NC  CA     1    120.500  585.760  ; Amber99Sb-disp
 CA  NC  CB     1    112.200  585.760  ; Amber99Sb-disp
 CA  NC  CQ     1    118.600  585.760  ; Amber99Sb-disp
 CB  NC  CQ     1    111.000  585.760  ; Amber99Sb-disp
 C   OH  HO     1    113.000  418.400  ; Amber99Sb-disp
 CA  OH  HO     1    113.000  418.400  ; Amber99Sb-disp
 CT  OH  HO     1    108.500  460.240  ; Amber99Sb-disp
 HO  OH  P      1    108.500  376.560  ; Amber99Sb-disp
 C   OS  CT     1    117.000  502.080  ; Amber99Sb-disp
 CM  OS  CT     1    117.000  502.080  ; Amber99Sb-disp
 CT  OS  CT     1    109.500  502.080  ; Amber99Sb-disp
 CT  OS  P      1    120.500  836.800  ; Amber99Sb-disp
 P   OS  P      1    120.500  836.800  ; Amber99Sb-disp
 O2  P   OH     1    108.230  376.560  ; Amber99Sb-disp
 O2  P   O2     1    119.900 1171.520  ; Amber99Sb-disp
 O2  P   OS     1    108.230  836.800  ; Amber99Sb-disp
 OH  P   OS     1    102.600  376.560  ; Amber99Sb-disp
 OS  P   OS     1    102.600  376.560  ; Amber99Sb-disp
 CT  S   CT     1     98.900  518.816  ; Amber99Sb-disp
 CT  S   S      1    103.700  569.024  ; Amber99Sb-disp
 CT  SH  HS     1     96.000  359.824  ; Amber99Sb-disp
 HS  SH  HS     1     92.070  292.880  ; Amber99Sb-disp
 C7  C   O      1    120.400  669.440  ; Amber99Sb-disp
 C7  C   OB     1    120.400  669.440  ; Amber99Sb-disp
 C7  C   O2     1    117.000  585.760  ; Amber99Sb-disp
 C7  C   N      1    116.600  585.760  ; Amber99Sb-disp
 H1  C7  H1     1    109.500  292.880  ; Amber99Sb-disp
 H1  C7  N      1    109.500  418.400  ; Amber99Sb-disp
 HP  C7  HP     1    109.500  292.880  ; Amber99Sb-disp
 HP  C7  N3     1    109.500  418.400  ; Amber99Sb-disp
 C   C7  H1     1    109.500  418.400  ; Amber99Sb-disp
 C   C7  HP     1    109.500  418.400  ; Amber99Sb-disp
 C   C7  N      1    110.100  527.184  ; Amber99Sb-disp
 C   C7  N3     1    111.200  669.440  ; Amber99Sb-disp
 C   N   C7     1    121.900  418.400  ; Amber99Sb-disp
 C7  N   H      1    118.040  418.400  ; Amber99Sb-disp
 C7  N   HB     1    118.040  418.400  ; Amber99Sb-disp
 C7  N3  H      1    109.500  418.400  ; Amber99Sb-disp
 C7  N   CT     1    118.000  418.400  ; Amber99Sb-disp
 C7  N3  CT     1    109.500  418.400  ; Amber99Sb-disp
 CT  C7  N3     1    111.200  669.440  ; Amber99Sb-disp
 CT  C7  HP     1    109.500  418.400  ; Amber99Sb-disp
 C7  CT  CT     1    109.500  334.720  ; Amber99Sb-disp
 C7  CT  HC     1    109.500  418.400  ; Amber99Sb-disp
 CT  C7  N      1    109.700  669.440  ; Amber99Sb-disp
 C   C7  CT     1    111.100  527.184  ; Amber99Sb-disp
 CT  C7  H1     1    109.500  418.400  ; Amber99Sb-disp
 CT  C5  O      1    120.400  669.440  ; Amber99Sb-disp
 CT  C6  O2     1    117.000  585.760  ; Amber99Sb-disp
 CT  CC  O2     1    117.000  585.760  ; Amber99Sb-disp
 CT  C5  N      1    116.600  585.760  ; Amber99Sb-disp
 N   C5  O      1    122.900  669.440  ; Amber99Sb-disp
 O2  C6  O2     1    126.000  669.440  ; Amber99Sb-disp
 O2  CC  O2     1    126.000  669.440  ; Amber99Sb-disp
 HC  C3  HC     1    109.500  292.880  ; Amber99Sb-disp
 C5  CT  HC     1    109.500  418.400  ; Amber99Sb-disp
 C6  CT  HC     1    109.500  418.400  ; Amber99Sb-disp
 C5  CT  CT     1    111.100  527.184  ; Amber99Sb-disp
 C6  CT  CT     1    111.100  527.184  ; Amber99Sb-disp
 CT  C4  CT     1    109.500  334.720  ; Amber99Sb-disp
 CT  CT  C4     1    109.500  334.720  ; Amber99Sb-disp
 C4  CT  HC     1    109.500  418.400  ; Amber99Sb-disp
 CT  C4  HC     1    109.500  418.400  ; Amber99Sb-disp
 CT  CT  C3     1    109.500  334.720  ; Amber99Sb-disp
 CT  C3  HC     1    109.500  418.400  ; Amber99Sb-disp
 C3  CT  HC     1    109.500  418.400  ; Amber99Sb-disp
 C5  N   H      1    120.000  418.400  ; Amber99Sb-disp
 C5  N   HB     1    120.000  418.400  ; Amber99Sb-disp
 HP  C1  HP     1    109.500  292.880  ; Amber99Sb-disp
 HP  C1  N3     1    109.500  418.400  ; Amber99Sb-disp
 C   C1  HP     1    109.500  418.400  ; Amber99Sb-disp
 CT  C1  HP     1    109.500  418.400  ; Amber99Sb-disp

 [ dihedraltypes ] 
;i  j   k  l	 func      phase      kd      pn
 C   C1  N   O     4     180.0      4.60240     2  ; Amber99Sb-disp
 C   C1  N   OB    4     180.0      4.60240     2  ; Amber99Sb-disp
 C   C1  N   H     4     180.0      4.60240     2  ; Amber99Sb-disp
 C   C1  N   HB    4     180.0      4.60240     2  ; Amber99Sb-disp
 C9  O   C   OH    4     180.0     43.93200     2  ; Amber99Sb-disp
 CB  CK  N*  CT    4     180.0      4.18400     2  ; Amber99Sb-disp
 C   CM  N*  CT    4     180.0      4.18400     2  ; Amber99Sb-disp
 CT  O   C   OH    4     180.0     43.93200     2  ; Amber99Sb-disp
 CT  CV  CC  NA    4     180.0      4.60240     2  ; Amber99Sb-disp
 CT  CW  CC  NB    4     180.0      4.60240     2  ; Amber99Sb-disp
 CT  CC  CW  NB    4     180.0      4.60240     2  ; Amber99Sb-disp
 CT  CW  CC  NA    4     180.0      4.60240     2  ; Amber99Sb-disp
 CB  CT  C*  CW    4     180.0      4.60240     2  ; Amber99Sb-disp
 CA  CA  CA  CT    4     180.0      4.60240     2  ; Amber99Sb-disp
 C   CM  CM  CT    4     180.0      4.60240     2  ; Amber99Sb-disp
 CM  N2  CA  NC    4     180.0      4.60240     2  ; Amber99Sb-disp
 CB  N2  CA  NC    4     180.0      4.60240     2  ; Amber99Sb-disp
 N2  NA  CA  NC    4     180.0      4.60240     2  ; Amber99Sb-disp
 CA  CA  C   OH    4     180.0      4.60240     2  ; Amber99Sb-disp
 CA  CA  CA  OH    4     180.0      4.60240     2  ; Amber99Sb-disp
 H5  O   C   OH    4     180.0      4.60240     2  ; Amber99Sb-disp
 H5  O   C   OS    4     180.0      4.60240     2  ; Amber99Sb-disp
 CM  CT  CM  HA    4     180.0      4.60240     2  ; Amber99Sb-disp
 Br  CA  CA  CA    4     180.0      4.60240     2  ; Amber99Sb-disp
 CM  H4  C   O     4     180.0      4.60240     2  ; Amber99Sb-disp
 C   CT  N   H     4     180.0      4.60240     2  ; Amber99Sb-disp
 C   CT  N   HB    4     180.0      4.60240     2  ; Amber99Sb-disp
 C   CT  N   O     4     180.0      4.60240     2  ; Amber99Sb-disp
 C   C7  N   O     4     180.0      4.60240     2  ; Amber99Sb-disp
 C   CT  N   OB    4     180.0      4.60240     2  ; Amber99Sb-disp
 C   C7  N   OB    4     180.0      4.60240     2  ; Amber99Sb-disp
 C   C7  N   H     4     180.0      4.60240     2  ; Amber99Sb-disp
 C   C7  N   HB    4     180.0      4.60240     2  ; Amber99Sb-disp
 C5  CT  N   O     4     180.0      4.60240     2  ; Amber99Sb-disp
 C5  CT  N   OB    4     180.0      4.60240     2  ; Amber99Sb-disp
 C5  CT  N   H     4     180.0      4.60240     2  ; Amber99Sb-disp
 C5  CT  N   HB    4     180.0      4.60240     2  ; Amber99Sb-disp
 X   CT  N   C1    4     180.0      4.18400     2  ; Amber99Sb-disp
 X   CT  N   C7    4     180.0      4.18400     2  ; Amber99Sb-disp
 X   O2  C6  O2    4     180.0     43.93200     2  ; Amber99Sb-disp
 X   O2  C   O2    4     180.0     43.93200     2  ; Amber99Sb-disp
 X   N2  CA  N2    4     180.0     43.93200     2  ; Amber99Sb-disp
 X   CT  N   CT    4     180.0      4.18400     2  ; Amber99Sb-disp
 X   X   C   O     4     180.0     43.93200     2  ; Amber99Sb-disp
 X   X   C   OB    4     180.0     43.93200     2  ; Amber99Sb-disp
 X   X   N   H     4     180.0      4.18400     2  ; Amber99Sb-disp
 X   X   N2  H     4     180.0      4.18400     2  ; Amber99Sb-disp
 X   X   NA  H     4     180.0      4.18400     2  ; Amber99Sb-disp
 X   X   CA  HA    4     180.0      4.60240     2  ; Amber99Sb-disp
 X   X   CW  H4    4     180.0      4.60240     2  ; Amber99Sb-disp
 X   X   CR  H5    4     180.0      4.60240     2  ; Amber99Sb-disp
 X   X   CV  H4    4     180.0      4.60240     2  ; Amber99Sb-disp
 X   X   CQ  H5    4     180.0      4.60240     2  ; Amber99Sb-disp
 X   X   CK  H5    4     180.0      4.60240     2  ; Amber99Sb-disp
 X   X   CM  H4    4     180.0      4.60240     2  ; Amber99Sb-disp
 X   X   CM  HA    4     180.0      4.60240     2  ; Amber99Sb-disp
 X   X   CA  H4    4     180.0      4.60240     2  ; Amber99Sb-disp
 X   X   CA  H5    4     180.0      4.60240     2  ; Amber99Sb-disp
 X   X   C5  O     4     180.0     43.93200     2  ; Amber99Sb-disp
;i   j   k   l	   func	
 C8  CT  C   N     9       0.0      0.83680     1  ; Amber99Sb-disp
 C8  CT  C   N     9       0.0      0.83680     2  ; Amber99Sb-disp
 C8  CT  C   N     9       0.0      1.67360     3  ; Amber99Sb-disp
 C8  CT  N   C     9       0.0      8.36800     1  ; Amber99Sb-disp
 C8  CT  N   C     9       0.0      8.36800     2  ; Amber99Sb-disp
 C8  CT  N   C     9       0.0      1.67360     3  ; Amber99Sb-disp
 C   CT  C8  O3    9     180.0      4.18400     1  ; Amber99Sb-disp
 C   CT  C8  OH    9     180.0      3.76560     1  ; Amber99Sb-disp
 C   CT  CT  C4    9       0.0      2.39074     1  ; Amber99Sb-disp
 C   CT  CT  C4    9     180.0      1.49913     2  ; Amber99Sb-disp
 C   CT  CT  C4    9       0.0      0.56400     3  ; Amber99Sb-disp
 C   CT  CT  C5    9       0.0      0.71421     1  ; Amber99Sb-disp
 C   CT  CT  C5    9     180.0      2.49241     2  ; Amber99Sb-disp
 C   CT  CT  C5    9       0.0      0.49580     3  ; Amber99Sb-disp
 C   CT  CT  C5    9     180.0      1.74556     4  ; Amber99Sb-disp
 C   CT  CT  C5    9       0.0      0.43597     5  ; Amber99Sb-disp
 C   CT  CT  C5    9     180.0      0.42142     6  ; Amber99Sb-disp
 C   CT  CT  C*    9       0.0      1.21336     1  ; Amber99Sb-disp
 C   CT  CT  C9    9       0.0      1.25520     1  ; Amber99Sb-disp
 C   CT  CT  CA    9       0.0      2.17568     1  ; Amber99Sb-disp
 C   CT  CT  CC    9       0.0      2.92880     1  ; Amber99Sb-disp
 C   CT  CT  SH    9     180.0      0.66944     1  ; Amber99Sb-disp
 Cl  CT  CT  Cl    9     180.0      1.88280     1  ; Amber99Sb-disp
 CM  CM  C   O     9     180.0      9.10020     2  ; Amber99Sb-disp
 CM  CM  C   O     9       0.0      1.25520     3  ; Amber99Sb-disp
 C   N   C1  C     9       0.0      0.35267     1  ; Amber99Sb-disp
 C   N   C1  C     9       0.0      1.59541     2  ; Amber99Sb-disp
 C   N   C1  C     9     180.0      0.08381     3  ; Amber99Sb-disp
 C   N   C1  C     9       0.0      0.32396     4  ; Amber99Sb-disp
 C   N   C7  C     9       0.0      1.12968     2  ; Amber99Sb-disp
 C   N   C7  C     9       0.0      1.75728     3  ; Amber99Sb-disp
 C   N   CT  C     9     180.0      0.14226     1  ; Amber99Sb-disp
 C   N   CT  C     9       0.0      1.40164     2  ; Amber99Sb-disp
 C   N   CT  C     9       0.0      2.27610     3  ; Amber99Sb-disp
 C   N   CT  C     9       0.0      0.33472     4  ; Amber99Sb-disp
 ;CT  C4  CT  CT    9     180.0      0.83680     1  ; Amber99Sb-disp
 ;CT  C4  CT  CT    9     180.0      1.04600     2  ; Amber99Sb-disp
 ;CT  C4  CT  CT    9       0.0      0.75312     3  ; Amber99Sb-disp
 CT  C7  C   N     9       0.0      0.83680     1  ; Amber99Sb-disp
 CT  C7  C   N     9       0.0      0.83680     2  ; Amber99Sb-disp
 CT  C7  C   N     9       0.0      1.67360     3  ; Amber99Sb-disp
 CT  C7  N   C     9       0.0      8.36800     1  ; Amber99Sb-disp
 CT  C7  N   C     9       0.0      8.36800     2  ; Amber99Sb-disp
 CT  C7  N   C     9       0.0      1.67360     3  ; Amber99Sb-disp
 CT  C9  C   O2    9     180.0      2.51040     2  ; Amber99Sb-disp
 CT  C9  C   O     9     180.0      2.51040     2  ; Amber99Sb-disp
 CT  C9  C   OB    9     180.0      2.51040     2  ; Amber99Sb-disp
 CT  CM  CM  CT    9     180.0     27.82360     2  ; Amber99Sb-disp
 CT  CM  CM  CT    9     180.0      7.94960     1  ; Amber99Sb-disp
 CT  CT  C4  CT    9       0.0      0.62760     3  ; Amber99Sb-disp
 CT  CT  C5  O     9     180.0      4.18400     1  ; Amber99Sb-disp
 CT  CT  C6  O2    9     180.0      0.77822     4  ; Amber99Sb-disp
 CT  CT  C6  O2    9     180.0      1.48114     6  ; Amber99Sb-disp
 CT  CT  C6  O2    9     180.0      3.65263     2  ; Amber99Sb-disp
 CT  CT  C*  CW    9       0.0      5.02080     1  ; Amber99Sb-disp
 CT  CT  C   N     9       0.0      0.83680     1  ; Amber99Sb-disp
 CT  CT  C   N     9       0.0      0.83680     2  ; Amber99Sb-disp
 CT  CT  C   N     9       0.0      1.67360     3  ; Amber99Sb-disp
 CT  CT  CT  C3    9       0.0      0.62760     3  ; Amber99Sb-disp
 CT  CT  CT  C7    9       0.0      0.75312     3  ; Amber99Sb-disp
 CT  CT  CT  C7    9     180.0      0.83680     1  ; Amber99Sb-disp
 CT  CT  CT  C7    9     180.0      1.04600     2  ; Amber99Sb-disp
 CT  CT  CT  CT    9       0.0      0.62760     3  ; Amber99Sb-disp
 CT  CT  N   C     9       0.0      1.67360     3  ; Amber99Sb-disp
 CT  CT  N   C     9       0.0      8.36800     1  ; Amber99Sb-disp
 CT  CT  N   C     9       0.0      8.36800     2  ; Amber99Sb-disp
 CT  CT  OS  C     9       0.0      1.60247     3  ; Amber99Sb-disp
 CT  CT  OS  C     9     180.0      3.34720     1  ; Amber99Sb-disp
 CT  CT  OS  CT    9       0.0      1.60247     3  ; Amber99Sb-disp
 CT  CT  OS  CT    9     180.0      0.41840     2  ; Amber99Sb-disp
 CT  CT  SH  HS    9       0.0      0.83680     3  ; Amber99Sb-disp
 CT  CT  SH  HS    9       0.0      2.09200     2  ; Amber99Sb-disp
 CT  OS  CT  N*    9       0.0      1.60247     3  ; Amber99Sb-disp
 CT  OS  CT  N*    9       0.0      2.71960     2  ; Amber99Sb-disp
 CT  OS  CT  OS    9       0.0      0.41840     3  ; Amber99Sb-disp
 CT  OS  CT  OS    9     180.0      3.55640     2  ; Amber99Sb-disp
 CT  OS  CT  OS    9     180.0      5.64840     1  ; Amber99Sb-disp
 CT  S   S   CT    9       0.0     14.64400     2  ; Amber99Sb-disp
 CT  S   S   CT    9       0.0      2.51040     3  ; Amber99Sb-disp
 F   CT  CT  F     9     180.0      5.02080     1  ; Amber99Sb-disp
 H1  C1  C   O     9       0.0      3.34720     1  ; Amber99Sb-disp
 H1  C1  C   O     9     180.0      0.33472     3  ; Amber99Sb-disp
 H1  C7  C   O     9       0.0      3.34720     1  ; Amber99Sb-disp
 H1  C7  C   O     9     180.0      0.33472     3  ; Amber99Sb-disp
 H1  CT  C   O     9       0.0      3.34720     1  ; Amber99Sb-disp
 H1  CT  C   O     9     180.0      0.33472     3  ; Amber99Sb-disp
 H1  C1  C   OB    9       0.0      3.34720     1  ; Amber99Sb-disp
 H1  C1  C   OB    9     180.0      0.33472     3  ; Amber99Sb-disp
 H1  C7  C   OB    9       0.0      3.34720     1  ; Amber99Sb-disp
 H1  C7  C   OB    9     180.0      0.33472     3  ; Amber99Sb-disp
 H1  CT  C   OB    9       0.0      3.34720     1  ; Amber99Sb-disp
 H1  CT  C   OB    9     180.0      0.33472     3  ; Amber99Sb-disp
 H1  CT  CT  Br    9       0.0      2.30120     1  ; Amber99Sb-disp
 H1  CT  CT  Cl    9       0.0      1.04600     1  ; Amber99Sb-disp
 H1  CT  CT  F     9       0.0      0.79496     1  ; Amber99Sb-disp
 H1  CT  CT  OH    9       0.0      1.04600     1  ; Amber99Sb-disp
 H1  CT  CT  OS    9       0.0      1.04600     1  ; Amber99Sb-disp
 HC  C3  CT  CT    9       0.0      0.66944     3  ; Amber99Sb-disp
 HC  C4  CT  CT    9       0.0      0.66944     3  ; Amber99Sb-disp
 HC  C4  CT  HC    9       0.0      0.62760     3  ; Amber99Sb-disp
 HC  CT  C3  HC    9       0.0      0.62760     3  ; Amber99Sb-disp
 HC  CT  C4  CT    9       0.0      0.66944     3  ; Amber99Sb-disp
 HC  CT  C5  O     9       0.0      3.34720     1  ; Amber99Sb-disp
 HC  CT  C5  O     9     180.0      0.33472     3  ; Amber99Sb-disp
 HC  CT  CM  CM    9       0.0      4.81160     1  ; Amber99Sb-disp
 HC  CT  CM  CM    9     180.0      1.58992     3  ; Amber99Sb-disp
 HC  CT  C   O     9       0.0      3.34720     1  ; Amber99Sb-disp
 HC  CT  C   O     9     180.0      0.33472     3  ; Amber99Sb-disp
 HC  CT  C   OB    9       0.0      3.34720     1  ; Amber99Sb-disp
 HC  CT  C   OB    9     180.0      0.33472     3  ; Amber99Sb-disp
 HC  CT  CT  Br    9       0.0      2.30120     1  ; Amber99Sb-disp
 HC  CT  CT  C3    9       0.0      0.66944     3  ; Amber99Sb-disp
 HC  CT  CT  C4    9       0.0      0.66944     3  ; Amber99Sb-disp
 HC  CT  CT  C7    9       0.0      0.66944     3  ; Amber99Sb-disp
 HC  CT  CT  Cl    9       0.0      1.04600     1  ; Amber99Sb-disp
 HC  CT  CT  CT    9       0.0      0.66944     3  ; Amber99Sb-disp
 HC  CT  CT  F     9       0.0      0.79496     1  ; Amber99Sb-disp
 HC  CT  CT  HC    9       0.0      0.62760     3  ; Amber99Sb-disp
 HC  CT  CT  OH    9       0.0      1.04600     1  ; Amber99Sb-disp
 HC  CT  CT  OS    9       0.0      1.04600     1  ; Amber99Sb-disp
 H   N   C5  O     9       0.0      8.36800     1  ; Amber99Sb-disp
 H   N   C5  O     9     180.0     10.46000     2  ; Amber99Sb-disp
 H   N   C   O     9       0.0      8.36800     1  ; Amber99Sb-disp
 H   N   C   O     9     180.0     10.46000     2  ; Amber99Sb-disp
 HB  N   C   OB    9       0.0      8.36800     1  ; Amber99Sb-disp
 HB  N   C   OB    9     180.0     10.46000     2  ; Amber99Sb-disp
 HO  O3  C8  CT    9       0.0      0.35982     1  ; Amber99Sb-disp
 HO  O3  C8  CT    9       0.0      0.41840     3  ; Amber99Sb-disp
 HO  O3  C8  CT    9     180.0      0.68199     2  ; Amber99Sb-disp
 HO  O3  C8  H1    9       0.0      0.41840     3  ; Amber99Sb-disp
 HO  OH  C8  CT    9       0.0      0.25104     2  ; Amber99Sb-disp
 HO  OH  C8  CT    9       0.0      0.83680     3  ; Amber99Sb-disp
 HO  OH  C8  CT    9       0.0      3.13800     1  ; Amber99Sb-disp
 HO  OH  C   O     9       0.0      7.94960     1  ; Amber99Sb-disp
 HO  OH  C   O     9     180.0      9.62320     2  ; Amber99Sb-disp
 HO  OH  CT  CT    9       0.0      0.66944     3  ; Amber99Sb-disp
 HO  OH  CT  CT    9       0.0      1.04600     1  ; Amber99Sb-disp
 N3  CT  CT  C3    9       0.0      0.81630     1  ; Amber99Sb-disp
 N3  CT  CT  C3    9     180.0      3.53925     2  ; Amber99Sb-disp
 N3  CT  CT  C6    9     180.0     11.02568     1  ; Amber99Sb-disp
 N3  CT  CT  C6    9     180.0      4.98022     2  ; Amber99Sb-disp
 N3  CT  CT  C6    9     180.0      0.02845     3  ; Amber99Sb-disp
 N3  CT  CT  C6    9       0.0      1.76858     4  ; Amber99Sb-disp
 N3  CT  CT  C6    9       0.0      0.96943     5  ; Amber99Sb-disp
 N3  CT  CT  C6    9     180.0      0.89009     6  ; Amber99Sb-disp
 N   C1  C   N     9     180.0      2.69445     1  ; Amber99Sb-disp
 N   C1  C   N     9     180.0      6.68666     2  ; Amber99Sb-disp
 N   C1  C   N     9     180.0      1.67111     3  ; Amber99Sb-disp
 N   C1  C   N     9       0.0      0.31419     4  ; Amber99Sb-disp
 N   C5  CT  CT    9     180.0      4.37772     1  ; Amber99Sb-disp
 N   C5  CT  CT    9     180.0      0.75730     2  ; Amber99Sb-disp
 N   C5  CT  CT    9     180.0      0.14811     3  ; Amber99Sb-disp
 N   C5  CT  CT    9       0.0      0.41966     4  ; Amber99Sb-disp
 N   C5  CT  CT    9       0.0      0.54308     5  ; Amber99Sb-disp
 N   C5  CT  CT    9     180.0      0.44373     6  ; Amber99Sb-disp
 N   C7  C   N     9     180.0      1.88280     1  ; Amber99Sb-disp
 N   C7  C   N     9     180.0      6.61072     2  ; Amber99Sb-disp
 N   C7  C   N     9     180.0      2.30120     3  ; Amber99Sb-disp
 N   CT  C8  CT    9       0.0      0.25104     1  ; Amber99Sb-disp
 N   CT  C8  CT    9     180.0      2.09200     2  ; Amber99Sb-disp
 N   CT  C8  CT    9       0.0      0.62760     3  ; Amber99Sb-disp
 N   CT  C8  CT    9     180.0      0.27196     4  ; Amber99Sb-disp
 N   CT  C8  O3    9     180.0      0.33472     1  ; Amber99Sb-disp
 N   CT  C8  OH    9     180.0      1.04600     1  ; Amber99Sb-disp
 N   CT  C   N     9     360.0      0.82425     1  ; Amber99Sb-disp
 N   CT  C   N     9     180.0      6.04588     2  ; Amber99Sb-disp
 N   CT  C   N     9     180.0      2.00414     3  ; Amber99Sb-disp
 N   CT  C   N     9     360.0      0.07991     4  ; Amber99Sb-disp
 N   CT  C   N     9     360.0      0.01674     5  ; Amber99Sb-disp
 N   CT  CT  C3    9       0.0      0.81630     1  ; Amber99Sb-disp
 N   CT  CT  C3    9     180.0      3.53925     2  ; Amber99Sb-disp
 N   CT  CT  C5    9     180.0      2.63592     1  ; Amber99Sb-disp
 N   CT  CT  C6    9     180.0     12.05410     1  ; Amber99Sb-disp
 N   CT  CT  C6    9     180.0      5.06682     2  ; Amber99Sb-disp
 N   CT  CT  C6    9       0.0      0.25941     3  ; Amber99Sb-disp
 N   CT  CT  C6    9       0.0      1.02508     4  ; Amber99Sb-disp
 N   CT  CT  C6    9       0.0      0.54810     5  ; Amber99Sb-disp
 N   CT  CT  C6    9     180.0      0.59413     6  ; Amber99Sb-disp
 N   CT  CT  C9    9       0.0      0.41840     1  ; Amber99Sb-disp
 N   CT  CT  CC    9     180.0      1.67360     1  ; Amber99Sb-disp
 N   CT  CT  SH    9     180.0      2.30120     1  ; Amber99Sb-disp
 N   CT  CT  SH    9     180.0      2.63592     2  ; Amber99Sb-disp
 N   CT  CT  SH    9     180.0      0.25104     3  ; Amber99Sb-disp
 N   CT  CT  SH    9     180.0      0.12552     4  ; Amber99Sb-disp
 O   C   OS  CT    9     180.0      5.85760     1  ; Amber99Sb-disp
 O   C   OS  CT    9     180.0     11.29680     2  ; Amber99Sb-disp
 OH  CT  CT  OH    9       0.0      0.60250     3  ; Amber99Sb-disp
 OH  CT  CT  OH    9       0.0      4.91620     2  ; Amber99Sb-disp
 OH  P   OS  CT    9       0.0      1.04600     3  ; Amber99Sb-disp
 OH  P   OS  CT    9       0.0      5.02080     2  ; Amber99Sb-disp
 OS  CT  CT  OH    9       0.0      0.60250     3  ; Amber99Sb-disp
 OS  CT  CT  OH    9       0.0      4.91620     2  ; Amber99Sb-disp
 OS  CT  CT  OS    9       0.0      4.91620     2  ; Amber99Sb-disp
 OS  CT  CT  OS    9       0.0      0.60250     3  ; Amber99Sb-disp
 OS  CT  N*  CK    9       0.0     10.46000     1  ; Amber99Sb-disp
 OS  CT  N*  CM    9       0.0     10.46000     1  ; Amber99Sb-disp
 OS  P   OS  CT    9       0.0      5.02080     2  ; Amber99Sb-disp
 OS  P   OS  CT    9       0.0      1.04600     3  ; Amber99Sb-disp
 N   CT  CT  CA    9       0.0      0.00000     0  ; Amber99Sb-disp
 N   CT  CT  C*    9       0.0      0.00000     0  ; Amber99Sb-disp
 CT  CT  C9  S     9       0.0      0.00000     0  ; Amber99Sb-disp
 CT  CT  C9  CT    9       0.0      0.00000     0  ; Amber99Sb-disp
 X   C1  N3  X     9       0.0      0.65084     3  ; Amber99Sb-disp
 X   C5  N   X     9     180.0     10.46000     2  ; Amber99Sb-disp
 X   C7  CT  X     9       0.0      0.65084     3  ; Amber99Sb-disp
 X   C7  N3  X     9       0.0      0.65084     3  ; Amber99Sb-disp
 X   C8  O3  X     9       0.0      0.69873     3  ; Amber99Sb-disp
 X   C8  OH  X     9       0.0      0.69873     3  ; Amber99Sb-disp
 X   C9  S   X     9       0.0      1.39327     3  ; Amber99Sb-disp
 X   CA  CA  X     9     180.0     15.16700     2  ; Amber99Sb-disp
 X   CA  CB  X     9     180.0     14.64400     2  ; Amber99Sb-disp
 X   CA  CM  X     9     180.0     10.66920     2  ; Amber99Sb-disp
 X   CA  CN  X     9     180.0     15.16700     2  ; Amber99Sb-disp
 X   CA  N2  X     9     180.0     10.04160     2  ; Amber99Sb-disp
 X   CA  NA  X     9     180.0      6.27600     2  ; Amber99Sb-disp
 X   CA  NC  X     9     180.0     20.08320     2  ; Amber99Sb-disp
 X   CA  OH  X     9     180.0      3.76560     2  ; Amber99Sb-disp
 X   CB  CB  X     9     180.0     22.80280     2  ; Amber99Sb-disp
 X   CB  CN  X     9     180.0     12.55200     2  ; Amber99Sb-disp
 X   CB  NB  X     9     180.0     10.66920     2  ; Amber99Sb-disp
 X   CB  NC  X     9     180.0     17.36360     2  ; Amber99Sb-disp
 X   CB  N*  X     9     180.0      6.90360     2  ; Amber99Sb-disp
 X   C   CA  X     9     180.0     15.16700     2  ; Amber99Sb-disp
 X   C   CB  X     9     180.0     12.55200     2  ; Amber99Sb-disp
 X   C*  CB  X     9     180.0      7.00820     2  ; Amber99Sb-disp
 X   CC  CV  X     9     180.0     21.54760     2  ; Amber99Sb-disp
 X   CC  CW  X     9     180.0     22.48900     2  ; Amber99Sb-disp
 X   C   CM  X     9     180.0      9.10020     2  ; Amber99Sb-disp
 X   CC  NA  X     9     180.0      5.85760     2  ; Amber99Sb-disp
 X   CC  NB  X     9     180.0     10.04160     2  ; Amber99Sb-disp
 X   C*  CW  X     9     180.0     27.30060     2  ; Amber99Sb-disp
 X   C   C   X     9     180.0     15.16700     2  ; Amber99Sb-disp
 X   CK  NB  X     9     180.0     41.84000     2  ; Amber99Sb-disp
 X   CK  N*  X     9     180.0      7.11280     2  ; Amber99Sb-disp
 X   CM  CM  X     9     180.0     27.82360     2  ; Amber99Sb-disp
 X   CM  N*  X     9     180.0      7.74040     2  ; Amber99Sb-disp
 X   CM  OS  X     9     180.0      4.39320     2  ; Amber99Sb-disp
 X   C   NA  X     9     180.0      5.64840     2  ; Amber99Sb-disp
 X   C   NC  X     9     180.0     16.73600     2  ; Amber99Sb-disp
 X   CN  NA  X     9     180.0      6.38060     2  ; Amber99Sb-disp
 X   C   N   X     9     180.0     10.46000     2  ; Amber99Sb-disp
 X   C   N*  X     9     180.0      6.06680     2  ; Amber99Sb-disp
 X   C   OH  X     9     180.0      9.62320     2  ; Amber99Sb-disp
 X   C   OS  X     9     180.0     11.29680     2  ; Amber99Sb-disp
 X   C   O   X     9     180.0     11.71520     2  ; Amber99Sb-disp
 X   C   OB  X     9     180.0     11.71520     2  ; Amber99Sb-disp
 X   CQ  NC  X     9     180.0     28.45120     2  ; Amber99Sb-disp
 X   CR  NA  X     9     180.0      9.72780     2  ; Amber99Sb-disp
 X   CR  NB  X     9     180.0     20.92000     2  ; Amber99Sb-disp
 X   CT  C8  X     9       0.0      0.64852     3  ; Amber99Sb-disp
 X   CT  C9  X     9       0.0      0.64852     3  ; Amber99Sb-disp
 X   CT  CT  X     9       0.0      0.65084     3  ; Amber99Sb-disp
 X   CT  N3  X     9       0.0      0.65084     3  ; Amber99Sb-disp
 X   CT  OH  X     9       0.0      0.69733     3  ; Amber99Sb-disp
 X   CT  OS  X     9       0.0      1.60387     3  ; Amber99Sb-disp
 X   CT  SH  X     9       0.0      1.04600     3  ; Amber99Sb-disp
 X   CT  S   X     9       0.0      1.39467     3  ; Amber99Sb-disp
 X   CV  NB  X     9     180.0     10.04160     2  ; Amber99Sb-disp
 X   CW  NA  X     9     180.0      6.27600     2  ; Amber99Sb-disp
 X   OH  P   X     9       0.0      1.04600     3  ; Amber99Sb-disp
 X   OS  P   X     9       0.0      1.04600     3  ; Amber99Sb-disp
 X   C1  N   X     9       0.0      0.00000     0  ; Amber99Sb-disp
 X   C   C1  X     9       0.0      0.00000     0  ; Amber99Sb-disp
 X   C   C9  X     9       0.0      0.00000     0  ; Amber99Sb-disp
 X   C   CT  X     9       0.0      0.00000     0  ; Amber99Sb-disp
 X   CA  CT  X     9       0.0      0.00000     0  ; Amber99Sb-disp
 X   CC  CT  X     9       0.0      0.00000     0  ; Amber99Sb-disp
 X   CM  CT  X     9       0.0      0.00000     0  ; Amber99Sb-disp
 X   CT  N   X     9       0.0      0.00000     0  ; Amber99Sb-disp
 X   CT  N*  X     9       0.0      0.00000     0  ; Amber99Sb-disp
 X   CT  N2  X     9       0.0      0.00000     0  ; Amber99Sb-disp
 X   C*  CT  X     9       0.0      0.00000     0  ; Amber99Sb-disp
 X   C7  N   X     9       0.0      0.00000     0  ; Amber99Sb-disp
 X   C   C7  X     9       0.0      0.00000     0  ; Amber99Sb-disp
 X   C5  CT  X     9       0.0      0.00000     0  ; Amber99Sb-disp
 X   C6  CT  X     9       0.0      0.00000     0  ; Amber99Sb-disp
; L47_GMX.top created by acpype (v: 2022.1.3) on Wed Jun  8 14:36:52 2022
; nbfunc        comb-rule       gen-pairs       fudgeLJ fudgeQQ
;1               2               yes             0.5     0.8333

[ moleculetype ]
; Name            nrexcl
Protein_chain_A     3

[ atoms ]
     1        sN3    121   NASP      N      1  0.0737991     14.010
     2         sH    121   NASP     H1      2  0.2076189      1.008
     3         sH    121   NASP     H2      3  0.2076189      1.008
     4         sH    121   NASP     H3      4  0.2076189      1.008
     5        sCT    121   NASP     CA      5  0.0275567     12.010
     6        sHP    121   NASP     HA      6  0.1076787      1.008
     7        sCT    121   NASP     CB      7 -0.0221775     12.010
     8        sHC    121   NASP    HB1      8 -0.0159489      1.008
     9        sHC    121   NASP    HB2      9 -0.0159489      1.008
    10        sC6    121   NASP     CG     10  0.7732859     12.010
    11        sO2    121   NASP    OD1     11 -0.7629049     16.000
    12        sO2    121   NASP    OD2     12 -0.7629049     16.000
    13         sC    121   NASP      C     13  0.5304662     12.010
    14        sOB    121   NASP      O     14 -0.5557579     16.000
    15         sN    122    ASN      N     15 -0.3923053     14.010
    16        sHB    122    ASN      H     16  0.2565980      1.008
    17        sCT    122    ASN     CA     17  0.0134952     12.010
    18        sH1    122    ASN     HA     18  0.0989021      1.008
    19        sCT    122    ASN     CB     19 -0.1926137     12.010
    20        sHC    122    ASN    HB1     20  0.0752146      1.008
    21        sHC    122    ASN    HB2     21  0.0752146      1.008
    22        sC5    122    ASN     CG     22  0.6728738     12.010
    23         sO    122    ASN    OD1     23 -0.5597216     16.000
    24         sN    122    ASN    ND2     24 -0.8673749     14.010
    25         sH    122    ASN   HD21     25  0.3959858      1.008
    26         sH    122    ASN   HD22     26  0.3959858      1.008
    27         sC    122    ASN      C     27  0.5636852     12.010
    28        sOB    122    ASN      O     28 -0.5359398     16.000
    29         sN    123    GLU      N     29 -0.3923053     14.010
    30        sHB    123    GLU      H     30  0.2565980      1.008
    31        sCT    123    GLU     CA     31 -0.2147751     12.010
    32        sH1    123    GLU     HA     32  0.1458475      1.008
    33        sCT    123    GLU     CB     33  0.1094812     12.010
    34        sHC    123    GLU    HB1     34 -0.0058671      1.008
    35        sHC    123    GLU    HB2     35 -0.0058671      1.008
    36        sC9    123    GLU     CG     36 -0.0771908     12.010
    37        sHC    123    GLU    HG1     37 -0.0058077      1.008
    38        sHC    123    GLU    HG2     38 -0.0058077      1.008
    39         sC    123    GLU     CD     39  0.6876091     12.010
    40        sO2    123    GLU    OE1     40 -0.7316913     16.000
    41        sO2    123    GLU    OE2     41 -0.7316913     16.000
    42         sC    123    GLU      C     42  0.5636852     12.010
    43        sOB    123    GLU      O     43 -0.5359398     16.000
    44         sN    124    ALA      N     44 -0.3923053     14.010
    45        sHB    124    ALA      H     45  0.2565980      1.008
    46        sCT    124    ALA     CA     46  0.0318034     12.010
    47        sH1    124    ALA     HA     47  0.0776683      1.008
    48        sCT    124    ALA     CB     48 -0.1722293     12.010
    49        sHC    124    ALA    HB1     49  0.0569064      1.008
    50        sHC    124    ALA    HB2     50  0.0569064      1.008
    51        sHC    124    ALA    HB3     51  0.0569064      1.008
    52         sC    124    ALA      C     52  0.5636852     12.010
    53        sOB    124    ALA      O     53 -0.5359398     16.000
    54         sN    125    TYR      N     54 -0.3923053     14.010
    55        sHB    125    TYR      H     55  0.2565980      1.008
    56        sCT    125    TYR     CA     56 -0.0013212     12.010
    57        sH1    125    TYR     HA     57  0.0826701      1.008
    58        sCT    125    TYR     CB     58 -0.0143446     12.010
    59        sHC    125    TYR    HB1     59  0.0278398      1.008
    60        sHC    125    TYR    HB2     60  0.0278398      1.008
    61        sCA    125    TYR     CG     61 -0.0010381     12.010
    62        sCA    125    TYR    CD1     62 -0.1798734     12.010
    63        sHA    125    TYR    HD1     63  0.1603384      1.008
    64        sCA    125    TYR    CE1     64 -0.2209253     12.010
    65        sHA    125    TYR    HE1     65  0.1562804      1.008
    66         sC    125    TYR     CZ     66  0.3044447     12.010
    67        sOH    125    TYR     OH     67 -0.5265025     16.000
    68        sHO    125    TYR     HH     68  0.3767338      1.008
    69        sCA    125    TYR    CE2     69 -0.2209253     12.010
    70        sHA    125    TYR    HE2     70  0.1562804      1.008
    71        sCA    125    TYR    CD2     71 -0.1798734     12.010
    72        sHA    125    TYR    HD2     72  0.1603384      1.008
    73         sC    125    TYR      C     73  0.5636852     12.010
    74        sOB    125    TYR      O     74 -0.5359398     16.000
    75         sN    126    GLU      N     75 -0.3923053     14.010
    76        sHB    126    GLU      H     76  0.2565980      1.008
    77        sCT    126    GLU     CA     77 -0.2147751     12.010
    78        sH1    126    GLU     HA     78  0.1458475      1.008
    79        sCT    126    GLU     CB     79  0.1094812     12.010
    80        sHC    126    GLU    HB1     80 -0.0058671      1.008
    81        sHC    126    GLU    HB2     81 -0.0058671      1.008
    82        sC9    126    GLU     CG     82 -0.0771908     12.010
    83        sHC    126    GLU    HG1     83 -0.0058077      1.008
    84        sHC    126    GLU    HG2     84 -0.0058077      1.008
    85         sC    126    GLU     CD     85  0.6876091     12.010
    86        sO2    126    GLU    OE1     86 -0.7316913     16.000
    87        sO2    126    GLU    OE2     87 -0.7316913     16.000
    88         sC    126    GLU      C     88  0.5636852     12.010
    89        sOB    126    GLU      O     89 -0.5359398     16.000
    90         sN    127    MET      N     90 -0.3923053     14.010
    91        sHB    127    MET      H     91  0.2565980      1.008
    92        sCT    127    MET     CA     92 -0.0223662     12.010
    93        sH1    127    MET     HA     93  0.0830475      1.008
    94        sCT    127    MET     CB     94  0.0322753     12.010
    95        sHC    127    MET    HB1     95  0.0227437      1.008
    96        sHC    127    MET    HB2     96  0.0227437      1.008
    97        sC9    127    MET     CG     97  0.0016987     12.010
    98        sH1    127    MET    HG1     98  0.0415238      1.008
    99        sH1    127    MET    HG2     99  0.0415238      1.008
   100         sS    127    MET     SD    100 -0.2582967     32.060
   101        sCT    127    MET     CE    101 -0.0505835     12.010
   102        sH1    127    MET    HE1    102  0.0645506      1.008
   103        sH1    127    MET    HE2    103  0.0645506      1.008
   104        sH1    127    MET    HE3    104  0.0645506      1.008
   105         sC    127    MET      C    105  0.5636852     12.010
   106        sOB    127    MET      O    106 -0.5359398     16.000
   107         sN    128    PRO      N    107 -0.2404604     14.010
   108        sCT    128    PRO     CD    108  0.0181195     12.010
   109        sH1    128    PRO    HD1    109  0.0368995      1.008
   110        sH1    128    PRO    HD2    110  0.0368995      1.008
   111        sCT    128    PRO     CG    111  0.0178363     12.010
   112        sHC    128    PRO    HG1    112  0.0201013      1.008
   113        sHC    128    PRO    HG2    113  0.0201013      1.008
   114        sCT    128    PRO     CB    114 -0.0066061     12.010
   115        sHC    128    PRO    HB1    115  0.0238762      1.008
   116        sHC    128    PRO    HB2    116  0.0238762      1.008
   117        sC7    128    PRO     CA    117 -0.0251030     12.010
   118        sH1    128    PRO     HA    118  0.0604926      1.008
   119         sC    128    PRO      C    119  0.5564185     12.010
   120        sOB    128    PRO      O    120 -0.5424514     16.000
   121         sN    129    SER      N    121 -0.3923053     14.010
   122        sHB    129    SER      H    122  0.2565980      1.008
   123        sCT    129    SER     CA    123 -0.0234987     12.010
   124        sH1    129    SER     HA    124  0.0795558      1.008
   125        sC8    129    SER     CB    125  0.1997860     12.010
   126        sH1    129    SER    HB1    126  0.0332190      1.008
   127        sH1    129    SER    HB2    127  0.0332190      1.008
   128        sOH    129    SER     OG    128 -0.6177605     16.000
   129        sHO    129    SER    HG1    129  0.4034412      1.008
   130         sC    129    SER      C    130  0.5636852     12.010
   131        sOB    129    SER      O    131 -0.5359398     16.000
   132         sN    130    GLU      N    132 -0.3923053     14.010
   133        sHB    130    GLU      H    133  0.2565980      1.008
   134        sCT    130    GLU     CA    134 -0.2147751     12.010
   135        sH1    130    GLU     HA    135  0.1458475      1.008
   136        sCT    130    GLU     CB    136  0.1094812     12.010
   137        sHC    130    GLU    HB1    137 -0.0058671      1.008
   138        sHC    130    GLU    HB2    138 -0.0058671      1.008
   139        sC9    130    GLU     CG    139 -0.0771908     12.010
   140        sHC    130    GLU    HG1    140 -0.0058077      1.008
   141        sHC    130    GLU    HG2    141 -0.0058077      1.008
   142         sC    130    GLU     CD    142  0.6876091     12.010
   143        sO2    130    GLU    OE1    143 -0.7316913     16.000
   144        sO2    130    GLU    OE2    144 -0.7316913     16.000
   145         sC    130    GLU      C    145  0.5636852     12.010
   146        sOB    130    GLU      O    146 -0.5359398     16.000
   147         sN    131    GLU      N    147 -0.3923053     14.010
   148        sHB    131    GLU      H    148  0.2565980      1.008
   149        sCT    131    GLU     CA    149 -0.2147751     12.010
   150        sH1    131    GLU     HA    150  0.1458475      1.008
   151        sCT    131    GLU     CB    151  0.1094812     12.010
   152        sHC    131    GLU    HB1    152 -0.0058671      1.008
   153        sHC    131    GLU    HB2    153 -0.0058671      1.008
   154        sC9    131    GLU     CG    154 -0.0771908     12.010
   155        sHC    131    GLU    HG1    155 -0.0058077      1.008
   156        sHC    131    GLU    HG2    156 -0.0058077      1.008
   157         sC    131    GLU     CD    157  0.6876091     12.010
   158        sO2    131    GLU    OE1    158 -0.7316913     16.000
   159        sO2    131    GLU    OE2    159 -0.7316913     16.000
   160         sC    131    GLU      C    160  0.5636852     12.010
   161        sOB    131    GLU      O    161 -0.5359398     16.000
   162         sN    132    GLY      N    162 -0.3923053     14.010
   163        sHB    132    GLY      H    163  0.2565980      1.008
   164        sC1    132    GLY     CA    164 -0.0237818     12.010
   165        sH1    132    GLY    HA1    165  0.0658718      1.008
   166        sH1    132    GLY    HA2    166  0.0658718      1.008
   167         sC    132    GLY      C    167  0.5636852     12.010
   168        sOB    132    GLY      O    168 -0.5359398     16.000
   169         sN    133    TYR      N    169 -0.3923053     14.010
   170        sHB    133    TYR      H    170  0.2565980      1.008
   171        sCT    133    TYR     CA    171 -0.0013212     12.010
   172        sH1    133    TYR     HA    172  0.0826701      1.008
   173        sCT    133    TYR     CB    173 -0.0143446     12.010
   174        sHC    133    TYR    HB1    174  0.0278398      1.008
   175        sHC    133    TYR    HB2    175  0.0278398      1.008
   176        sCA    133    TYR     CG    176 -0.0010381     12.010
   177        sCA    133    TYR    CD1    177 -0.1798734     12.010
   178        sHA    133    TYR    HD1    178  0.1603384      1.008
   179        sCA    133    TYR    CE1    179 -0.2209253     12.010
   180        sHA    133    TYR    HE1    180  0.1562804      1.008
   181         sC    133    TYR     CZ    181  0.3044447     12.010
   182        sOH    133    TYR     OH    182 -0.5265025     16.000
   183        sHO    133    TYR     HH    183  0.3767338      1.008
   184        sCA    133    TYR    CE2    184 -0.2209253     12.010
   185        sHA    133    TYR    HE2    185  0.1562804      1.008
   186        sCA    133    TYR    CD2    186 -0.1798734     12.010
   187        sHA    133    TYR    HD2    187  0.1603384      1.008
   188         sC    133    TYR      C    188  0.5636852     12.010
   189        sOB    133    TYR      O    189 -0.5359398     16.000
   190         sN    134    GLN      N    190 -0.3923053     14.010
   191        sHB    134    GLN      H    191  0.2565980      1.008
   192        sCT    134    GLN     CA    192 -0.0029255     12.010
   193        sH1    134    GLN     HA    193  0.0802164      1.008
   194        sCT    134    GLN     CB    194 -0.0033974     12.010
   195        sHC    134    GLN    HB1    195  0.0161376      1.008
   196        sHC    134    GLN    HB2    196  0.0161376      1.008
   197        sC9    134    GLN     CG    197 -0.0608701     12.010
   198        sHC    134    GLN    HG1    198  0.0332190      1.008
   199        sHC    134    GLN    HG2    199  0.0332190      1.008
   200         sC    134    GLN     CD    200  0.6559812     12.010
   201         sO    134    GLN    OE1    201 -0.5743492     16.000
   202         sN    134    GLN    NE2    202 -0.8877593     14.010
   203         sH    134    GLN   HE21    203  0.4011762      1.008
   204         sH    134    GLN   HE22    204  0.4011762      1.008
   205         sC    134    GLN      C    205  0.5636852     12.010
   206        sOB    134    GLN      O    206 -0.5359398     16.000
   207         sN    135    ASP      N    207 -0.3923053     14.010
   208        sHB    135    ASP      H    208  0.2565980      1.008
   209        sCT    135    ASP     CA    209 -0.2119260     12.010
   210        sH1    135    ASP     HA    210  0.1379656      1.008
   211        sCT    135    ASP     CB    211  0.0033710     12.010
   212        sHC    135    ASP    HB1    212 -0.0147022      1.008
   213        sHC    135    ASP    HB2    213 -0.0147022      1.008
   214        sC6    135    ASP     CG    214  0.7199344     12.010
   215        sO2    135    ASP    OD1    215 -0.7278504     16.000
   216        sO2    135    ASP    OD2    216 -0.7278504     16.000
   217         sC    135    ASP      C    217  0.5636852     12.010
   218        sOB    135    ASP      O    218 -0.5359398     16.000
   219         sN    136    TYR      N    219 -0.3923053     14.010
   220        sHB    136    TYR      H    220  0.2565980      1.008
   221        sCT    136    TYR     CA    221 -0.0013212     12.010
   222        sH1    136    TYR     HA    222  0.0826701      1.008
   223        sCT    136    TYR     CB    223 -0.0143446     12.010
   224        sHC    136    TYR    HB1    224  0.0278398      1.008
   225        sHC    136    TYR    HB2    225  0.0278398      1.008
   226        sCA    136    TYR     CG    226 -0.0010381     12.010
   227        sCA    136    TYR    CD1    227 -0.1798734     12.010
   228        sHA    136    TYR    HD1    228  0.1603384      1.008
   229        sCA    136    TYR    CE1    229 -0.2209253     12.010
   230        sHA    136    TYR    HE1    230  0.1562804      1.008
   231         sC    136    TYR     CZ    231  0.3044447     12.010
   232        sOH    136    TYR     OH    232 -0.5265025     16.000
   233        sHO    136    TYR     HH    233  0.3767338      1.008
   234        sCA    136    TYR    CE2    234 -0.2209253     12.010
   235        sHA    136    TYR    HE2    235  0.1562804      1.008
   236        sCA    136    TYR    CD2    236 -0.1798734     12.010
   237        sHA    136    TYR    HD2    237  0.1603384      1.008
   238         sC    136    TYR      C    238  0.5636852     12.010
   239        sOB    136    TYR      O    239 -0.5359398     16.000
   240         sN    137    GLU      N    240 -0.3923053     14.010
   241        sHB    137    GLU      H    241  0.2565980      1.008
   242        sCT    137    GLU     CA    242 -0.2147751     12.010
   243        sH1    137    GLU     HA    243  0.1458475      1.008
   244        sCT    137    GLU     CB    244  0.1094812     12.010
   245        sHC    137    GLU    HB1    245 -0.0058671      1.008
   246        sHC    137    GLU    HB2    246 -0.0058671      1.008
   247        sC9    137    GLU     CG    247 -0.0771908     12.010
   248        sHC    137    GLU    HG1    248 -0.0058077      1.008
   249        sHC    137    GLU    HG2    249 -0.0058077      1.008
   250         sC    137    GLU     CD    250  0.6876091     12.010
   251        sO2    137    GLU    OE1    251 -0.7316913     16.000
   252        sO2    137    GLU    OE2    252 -0.7316913     16.000
   253         sC    137    GLU      C    253  0.5636852     12.010
   254        sOB    137    GLU      O    254 -0.5359398     16.000
   255         sN    138    PRO      N    255 -0.2404604     14.010
   256        sCT    138    PRO     CD    256  0.0181195     12.010
   257        sH1    138    PRO    HD1    257  0.0368995      1.008
   258        sH1    138    PRO    HD2    258  0.0368995      1.008
   259        sCT    138    PRO     CG    259  0.0178363     12.010
   260        sHC    138    PRO    HG1    260  0.0201013      1.008
   261        sHC    138    PRO    HG2    261  0.0201013      1.008
   262        sCT    138    PRO     CB    262 -0.0066061     12.010
   263        sHC    138    PRO    HB1    263  0.0238762      1.008
   264        sHC    138    PRO    HB2    264  0.0238762      1.008
   265        sC7    138    PRO     CA    265 -0.0251030     12.010
   266        sH1    138    PRO     HA    266  0.0604926      1.008
   267         sC    138    PRO      C    267  0.5564185     12.010
   268        sOB    138    PRO      O    268 -0.5424514     16.000
   269         sN    139    GLU      N    269 -0.3923053     14.010
   270        sHB    139    GLU      H    270  0.2565980      1.008
   271        sCT    139    GLU     CA    271 -0.2147751     12.010
   272        sH1    139    GLU     HA    272  0.1458475      1.008
   273        sCT    139    GLU     CB    273  0.1094812     12.010
   274        sHC    139    GLU    HB1    274 -0.0058671      1.008
   275        sHC    139    GLU    HB2    275 -0.0058671      1.008
   276        sC9    139    GLU     CG    276 -0.0771908     12.010
   277        sHC    139    GLU    HG1    277 -0.0058077      1.008
   278        sHC    139    GLU    HG2    278 -0.0058077      1.008
   279         sC    139    GLU     CD    279  0.6876091     12.010
   280        sO2    139    GLU    OE1    280 -0.7316913     16.000
   281        sO2    139    GLU    OE2    281 -0.7316913     16.000
   282         sC    139    GLU      C    282  0.5636852     12.010
   283        sOB    139    GLU      O    283 -0.5359398     16.000
   284         sN    140   CALA      N    284 -0.3605962     14.010
   285        sHB    140   CALA      H    285  0.2530119      1.008
   286        sCT    140   CALA     CA    286 -0.1648682     12.010
   287        sH1    140   CALA     HA    287  0.1006951      1.008
   288        sCT    140   CALA     CB    288 -0.1975210     12.010
   289        sHC    140   CALA    HB1    289  0.0721004      1.008
   290        sHC    140   CALA    HB2    290  0.0721004      1.008
   291        sHC    140   CALA    HB3    291  0.0721004      1.008
   292         sC    140   CALA      C    292  0.7295915     12.010
   293        sO2    140   CALA    OC1    293 -0.7601681     16.000
   294        sO2    140   CALA    OC2    294 -0.7601681     16.000

[ bonds ]
    1     2     1
    1     3     1
    1     4     1
    1     5     1
    5     6     1
    5     7     1
    5    13     1
    7     8     1
    7     9     1
    7    10     1
   10    11     1
   10    12     1
   13    14     1
   13    15     1
   15    16     1
   15    17     1
   17    18     1
   17    19     1
   17    27     1
   19    20     1
   19    21     1
   19    22     1
   22    23     1
   22    24     1
   24    25     1
   24    26     1
   27    28     1
   27    29     1
   29    30     1
   29    31     1
   31    32     1
   31    33     1
   31    42     1
   33    34     1
   33    35     1
   33    36     1
   36    37     1
   36    38     1
   36    39     1
   39    40     1
   39    41     1
   42    43     1
   42    44     1
   44    45     1
   44    46     1
   46    47     1
   46    48     1
   46    52     1
   48    49     1
   48    50     1
   48    51     1
   52    53     1
   52    54     1
   54    55     1
   54    56     1
   56    57     1
   56    58     1
   56    73     1
   58    59     1
   58    60     1
   58    61     1
   61    62     1
   61    71     1
   62    63     1
   62    64     1
   64    65     1
   64    66     1
   66    67     1
   66    69     1
   67    68     1
   69    70     1
   69    71     1
   71    72     1
   73    74     1
   73    75     1
   75    76     1
   75    77     1
   77    78     1
   77    79     1
   77    88     1
   79    80     1
   79    81     1
   79    82     1
   82    83     1
   82    84     1
   82    85     1
   85    86     1
   85    87     1
   88    89     1
   88    90     1
   90    91     1
   90    92     1
   92    93     1
   92    94     1
   92   105     1
   94    95     1
   94    96     1
   94    97     1
   97    98     1
   97    99     1
   97   100     1
  100   101     1
  101   102     1
  101   103     1
  101   104     1
  105   106     1
  105   107     1
  107   108     1
  107   117     1
  108   109     1
  108   110     1
  108   111     1
  111   112     1
  111   113     1
  111   114     1
  114   115     1
  114   116     1
  114   117     1
  117   118     1
  117   119     1
  119   120     1
  119   121     1
  121   122     1
  121   123     1
  123   124     1
  123   125     1
  123   130     1
  125   126     1
  125   127     1
  125   128     1
  128   129     1
  130   131     1
  130   132     1
  132   133     1
  132   134     1
  134   135     1
  134   136     1
  134   145     1
  136   137     1
  136   138     1
  136   139     1
  139   140     1
  139   141     1
  139   142     1
  142   143     1
  142   144     1
  145   146     1
  145   147     1
  147   148     1
  147   149     1
  149   150     1
  149   151     1
  149   160     1
  151   152     1
  151   153     1
  151   154     1
  154   155     1
  154   156     1
  154   157     1
  157   158     1
  157   159     1
  160   161     1
  160   162     1
  162   163     1
  162   164     1
  164   165     1
  164   166     1
  164   167     1
  167   168     1
  167   169     1
  169   170     1
  169   171     1
  171   172     1
  171   173     1
  171   188     1
  173   174     1
  173   175     1
  173   176     1
  176   177     1
  176   186     1
  177   178     1
  177   179     1
  179   180     1
  179   181     1
  181   182     1
  181   184     1
  182   183     1
  184   185     1
  184   186     1
  186   187     1
  188   189     1
  188   190     1
  190   191     1
  190   192     1
  192   193     1
  192   194     1
  192   205     1
  194   195     1
  194   196     1
  194   197     1
  197   198     1
  197   199     1
  197   200     1
  200   201     1
  200   202     1
  202   203     1
  202   204     1
  205   206     1
  205   207     1
  207   208     1
  207   209     1
  209   210     1
  209   211     1
  209   217     1
  211   212     1
  211   213     1
  211   214     1
  214   215     1
  214   216     1
  217   218     1
  217   219     1
  219   220     1
  219   221     1
  221   222     1
  221   223     1
  221   238     1
  223   224     1
  223   225     1
  223   226     1
  226   227     1
  226   236     1
  227   228     1
  227   229     1
  229   230     1
  229   231     1
  231   232     1
  231   234     1
  232   233     1
  234   235     1
  234   236     1
  236   237     1
  238   239     1
  238   240     1
  240   241     1
  240   242     1
  242   243     1
  242   244     1
  242   253     1
  244   245     1
  244   246     1
  244   247     1
  247   248     1
  247   249     1
  247   250     1
  250   251     1
  250   252     1
  253   254     1
  253   255     1
  255   256     1
  255   265     1
  256   257     1
  256   258     1
  256   259     1
  259   260     1
  259   261     1
  259   262     1
  262   263     1
  262   264     1
  262   265     1
  265   266     1
  265   267     1
  267   268     1
  267   269     1
  269   270     1
  269   271     1
  271   272     1
  271   273     1
  271   282     1
  273   274     1
  273   275     1
  273   276     1
  276   277     1
  276   278     1
  276   279     1
  279   280     1
  279   281     1
  282   283     1
  282   284     1
  284   285     1
  284   286     1
  286   287     1
  286   288     1
  286   292     1
  288   289     1
  288   290     1
  288   291     1
  292   293     1
  292   294     1


[ pairs ]
    1     8     1
    1     9     1
    1    10     1
    1    14     1
    1    15     1
    2     6     1
    2     7     1
    2    13     1
    3     6     1
    3     7     1
    3    13     1
    4     6     1
    4     7     1
    4    13     1
    5    11     1
    5    12     1
    5    16     1
    5    17     1
    6     8     1
    6     9     1
    6    10     1
    6    14     1
    6    15     1
    7    14     1
    7    15     1
    8    11     1
    8    12     1
    8    13     1
    9    11     1
    9    12     1
    9    13     1
   10    13     1
   13    18     1
   13    19     1
   13    27     1
   14    16     1
   14    17     1
   15    20     1
   15    21     1
   15    22     1
   15    28     1
   15    29     1
   16    18     1
   16    19     1
   16    27     1
   17    23     1
   17    24     1
   17    30     1
   17    31     1
   18    20     1
   18    21     1
   18    22     1
   18    28     1
   18    29     1
   19    25     1
   19    26     1
   19    28     1
   19    29     1
   20    23     1
   20    24     1
   20    27     1
   21    23     1
   21    24     1
   21    27     1
   22    27     1
   23    25     1
   23    26     1
   27    32     1
   27    33     1
   27    42     1
   28    30     1
   28    31     1
   29    34     1
   29    35     1
   29    36     1
   29    43     1
   29    44     1
   30    32     1
   30    33     1
   30    42     1
   31    37     1
   31    38     1
   31    39     1
   31    45     1
   31    46     1
   32    34     1
   32    35     1
   32    36     1
   32    43     1
   32    44     1
   33    40     1
   33    41     1
   33    43     1
   33    44     1
   34    37     1
   34    38     1
   34    39     1
   34    42     1
   35    37     1
   35    38     1
   35    39     1
   35    42     1
   36    42     1
   37    40     1
   37    41     1
   38    40     1
   38    41     1
   42    47     1
   42    48     1
   42    52     1
   43    45     1
   43    46     1
   44    49     1
   44    50     1
   44    51     1
   44    53     1
   44    54     1
   45    47     1
   45    48     1
   45    52     1
   46    55     1
   46    56     1
   47    49     1
   47    50     1
   47    51     1
   47    53     1
   47    54     1
   48    53     1
   48    54     1
   49    52     1
   50    52     1
   51    52     1
   52    57     1
   52    58     1
   52    73     1
   53    55     1
   53    56     1
   54    59     1
   54    60     1
   54    61     1
   54    74     1
   54    75     1
   55    57     1
   55    58     1
   55    73     1
   56    62     1
   56    71     1
   56    76     1
   56    77     1
   57    59     1
   57    60     1
   57    61     1
   57    74     1
   57    75     1
   58    63     1
   58    64     1
   58    69     1
   58    72     1
   58    74     1
   58    75     1
   59    62     1
   59    71     1
   59    73     1
   60    62     1
   60    71     1
   60    73     1
   61    65     1
   61    66     1
   61    70     1
   61    73     1
   62    67     1
   62    69     1
   62    72     1
   63    65     1
   63    66     1
   63    71     1
   64    68     1
   64    70     1
   64    71     1
   65    67     1
   65    69     1
   66    72     1
   67    70     1
   67    71     1
   68    69     1
   70    72     1
   73    78     1
   73    79     1
   73    88     1
   74    76     1
   74    77     1
   75    80     1
   75    81     1
   75    82     1
   75    89     1
   75    90     1
   76    78     1
   76    79     1
   76    88     1
   77    83     1
   77    84     1
   77    85     1
   77    91     1
   77    92     1
   78    80     1
   78    81     1
   78    82     1
   78    89     1
   78    90     1
   79    86     1
   79    87     1
   79    89     1
   79    90     1
   80    83     1
   80    84     1
   80    85     1
   80    88     1
   81    83     1
   81    84     1
   81    85     1
   81    88     1
   82    88     1
   83    86     1
   83    87     1
   84    86     1
   84    87     1
   88    93     1
   88    94     1
   88   105     1
   89    91     1
   89    92     1
   90    95     1
   90    96     1
   90    97     1
   90   106     1
   90   107     1
   91    93     1
   91    94     1
   91   105     1
   92    98     1
   92    99     1
   92   100     1
   92   108     1
   92   117     1
   93    95     1
   93    96     1
   93    97     1
   93   106     1
   93   107     1
   94   101     1
   94   106     1
   94   107     1
   95    98     1
   95    99     1
   95   100     1
   95   105     1
   96    98     1
   96    99     1
   96   100     1
   96   105     1
   97   102     1
   97   103     1
   97   104     1
   97   105     1
   98   101     1
   99   101     1
  105   109     1
  105   110     1
  105   111     1
  105   114     1
  105   118     1
  105   119     1
  106   108     1
  106   117     1
  107   112     1
  107   113     1
  107   115     1
  107   116     1
  107   120     1
  107   121     1
  108   115     1
  108   116     1
  108   118     1
  108   119     1
  109   112     1
  109   113     1
  109   114     1
  109   117     1
  110   112     1
  110   113     1
  110   114     1
  110   117     1
  111   118     1
  111   119     1
  112   115     1
  112   116     1
  112   117     1
  113   115     1
  113   116     1
  113   117     1
  114   120     1
  114   121     1
  115   118     1
  115   119     1
  116   118     1
  116   119     1
  117   122     1
  117   123     1
  118   120     1
  118   121     1
  119   124     1
  119   125     1
  119   130     1
  120   122     1
  120   123     1
  121   126     1
  121   127     1
  121   128     1
  121   131     1
  121   132     1
  122   124     1
  122   125     1
  122   130     1
  123   129     1
  123   133     1
  123   134     1
  124   126     1
  124   127     1
  124   128     1
  124   131     1
  124   132     1
  125   131     1
  125   132     1
  126   129     1
  126   130     1
  127   129     1
  127   130     1
  128   130     1
  130   135     1
  130   136     1
  130   145     1
  131   133     1
  131   134     1
  132   137     1
  132   138     1
  132   139     1
  132   146     1
  132   147     1
  133   135     1
  133   136     1
  133   145     1
  134   140     1
  134   141     1
  134   142     1
  134   148     1
  134   149     1
  135   137     1
  135   138     1
  135   139     1
  135   146     1
  135   147     1
  136   143     1
  136   144     1
  136   146     1
  136   147     1
  137   140     1
  137   141     1
  137   142     1
  137   145     1
  138   140     1
  138   141     1
  138   142     1
  138   145     1
  139   145     1
  140   143     1
  140   144     1
  141   143     1
  141   144     1
  145   150     1
  145   151     1
  145   160     1
  146   148     1
  146   149     1
  147   152     1
  147   153     1
  147   154     1
  147   161     1
  147   162     1
  148   150     1
  148   151     1
  148   160     1
  149   155     1
  149   156     1
  149   157     1
  149   163     1
  149   164     1
  150   152     1
  150   153     1
  150   154     1
  150   161     1
  150   162     1
  151   158     1
  151   159     1
  151   161     1
  151   162     1
  152   155     1
  152   156     1
  152   157     1
  152   160     1
  153   155     1
  153   156     1
  153   157     1
  153   160     1
  154   160     1
  155   158     1
  155   159     1
  156   158     1
  156   159     1
  160   165     1
  160   166     1
  160   167     1
  161   163     1
  161   164     1
  162   168     1
  162   169     1
  163   165     1
  163   166     1
  163   167     1
  164   170     1
  164   171     1
  165   168     1
  165   169     1
  166   168     1
  166   169     1
  167   172     1
  167   173     1
  167   188     1
  168   170     1
  168   171     1
  169   174     1
  169   175     1
  169   176     1
  169   189     1
  169   190     1
  170   172     1
  170   173     1
  170   188     1
  171   177     1
  171   186     1
  171   191     1
  171   192     1
  172   174     1
  172   175     1
  172   176     1
  172   189     1
  172   190     1
  173   178     1
  173   179     1
  173   184     1
  173   187     1
  173   189     1
  173   190     1
  174   177     1
  174   186     1
  174   188     1
  175   177     1
  175   186     1
  175   188     1
  176   180     1
  176   181     1
  176   185     1
  176   188     1
  177   182     1
  177   184     1
  177   187     1
  178   180     1
  178   181     1
  178   186     1
  179   183     1
  179   185     1
  179   186     1
  180   182     1
  180   184     1
  181   187     1
  182   185     1
  182   186     1
  183   184     1
  185   187     1
  188   193     1
  188   194     1
  188   205     1
  189   191     1
  189   192     1
  190   195     1
  190   196     1
  190   197     1
  190   206     1
  190   207     1
  191   193     1
  191   194     1
  191   205     1
  192   198     1
  192   199     1
  192   200     1
  192   208     1
  192   209     1
  193   195     1
  193   196     1
  193   197     1
  193   206     1
  193   207     1
  194   201     1
  194   202     1
  194   206     1
  194   207     1
  195   198     1
  195   199     1
  195   200     1
  195   205     1
  196   198     1
  196   199     1
  196   200     1
  196   205     1
  197   203     1
  197   204     1
  197   205     1
  198   201     1
  198   202     1
  199   201     1
  199   202     1
  201   203     1
  201   204     1
  205   210     1
  205   211     1
  205   217     1
  206   208     1
  206   209     1
  207   212     1
  207   213     1
  207   214     1
  207   218     1
  207   219     1
  208   210     1
  208   211     1
  208   217     1
  209   215     1
  209   216     1
  209   220     1
  209   221     1
  210   212     1
  210   213     1
  210   214     1
  210   218     1
  210   219     1
  211   218     1
  211   219     1
  212   215     1
  212   216     1
  212   217     1
  213   215     1
  213   216     1
  213   217     1
  214   217     1
  217   222     1
  217   223     1
  217   238     1
  218   220     1
  218   221     1
  219   224     1
  219   225     1
  219   226     1
  219   239     1
  219   240     1
  220   222     1
  220   223     1
  220   238     1
  221   227     1
  221   236     1
  221   241     1
  221   242     1
  222   224     1
  222   225     1
  222   226     1
  222   239     1
  222   240     1
  223   228     1
  223   229     1
  223   234     1
  223   237     1
  223   239     1
  223   240     1
  224   227     1
  224   236     1
  224   238     1
  225   227     1
  225   236     1
  225   238     1
  226   230     1
  226   231     1
  226   235     1
  226   238     1
  227   232     1
  227   234     1
  227   237     1
  228   230     1
  228   231     1
  228   236     1
  229   233     1
  229   235     1
  229   236     1
  230   232     1
  230   234     1
  231   237     1
  232   235     1
  232   236     1
  233   234     1
  235   237     1
  238   243     1
  238   244     1
  238   253     1
  239   241     1
  239   242     1
  240   245     1
  240   246     1
  240   247     1
  240   254     1
  240   255     1
  241   243     1
  241   244     1
  241   253     1
  242   248     1
  242   249     1
  242   250     1
  242   256     1
  242   265     1
  243   245     1
  243   246     1
  243   247     1
  243   254     1
  243   255     1
  244   251     1
  244   252     1
  244   254     1
  244   255     1
  245   248     1
  245   249     1
  245   250     1
  245   253     1
  246   248     1
  246   249     1
  246   250     1
  246   253     1
  247   253     1
  248   251     1
  248   252     1
  249   251     1
  249   252     1
  253   257     1
  253   258     1
  253   259     1
  253   262     1
  253   266     1
  253   267     1
  254   256     1
  254   265     1
  255   260     1
  255   261     1
  255   263     1
  255   264     1
  255   268     1
  255   269     1
  256   263     1
  256   264     1
  256   266     1
  256   267     1
  257   260     1
  257   261     1
  257   262     1
  257   265     1
  258   260     1
  258   261     1
  258   262     1
  258   265     1
  259   266     1
  259   267     1
  260   263     1
  260   264     1
  260   265     1
  261   263     1
  261   264     1
  261   265     1
  262   268     1
  262   269     1
  263   266     1
  263   267     1
  264   266     1
  264   267     1
  265   270     1
  265   271     1
  266   268     1
  266   269     1
  267   272     1
  267   273     1
  267   282     1
  268   270     1
  268   271     1
  269   274     1
  269   275     1
  269   276     1
  269   283     1
  269   284     1
  270   272     1
  270   273     1
  270   282     1
  271   277     1
  271   278     1
  271   279     1
  271   285     1
  271   286     1
  272   274     1
  272   275     1
  272   276     1
  272   283     1
  272   284     1
  273   280     1
  273   281     1
  273   283     1
  273   284     1
  274   277     1
  274   278     1
  274   279     1
  274   282     1
  275   277     1
  275   278     1
  275   279     1
  275   282     1
  276   282     1
  277   280     1
  277   281     1
  278   280     1
  278   281     1
  282   287     1
  282   288     1
  282   292     1
  283   285     1
  283   286     1
  284   289     1
  284   290     1
  284   291     1
  284   293     1
  284   294     1
  285   287     1
  285   288     1
  285   292     1
  287   289     1
  287   290     1
  287   291     1
  287   293     1
  287   294     1
  288   293     1
  288   294     1
  289   292     1
  290   292     1
  291   292     1


[ angles ]
    2     1     3     1
    2     1     4     1
    2     1     5     1
    3     1     4     1
    3     1     5     1
    4     1     5     1
    1     5     6     1
    1     5     7     1
    1     5    13     1
    6     5     7     1
    6     5    13     1
    7     5    13     1
    5     7     8     1
    5     7     9     1
    5     7    10     1
    8     7     9     1
    8     7    10     1
    9     7    10     1
    7    10    11     1
    7    10    12     1
   11    10    12     1
    5    13    14     1
    5    13    15     1
   14    13    15     1
   13    15    16     1
   13    15    17     1
   16    15    17     1
   15    17    18     1
   15    17    19     1
   15    17    27     1
   18    17    19     1
   18    17    27     1
   19    17    27     1
   17    19    20     1
   17    19    21     1
   17    19    22     1
   20    19    21     1
   20    19    22     1
   21    19    22     1
   19    22    23     1
   19    22    24     1
   23    22    24     1
   22    24    25     1
   22    24    26     1
   25    24    26     1
   17    27    28     1
   17    27    29     1
   28    27    29     1
   27    29    30     1
   27    29    31     1
   30    29    31     1
   29    31    32     1
   29    31    33     1
   29    31    42     1
   32    31    33     1
   32    31    42     1
   33    31    42     1
   31    33    34     1
   31    33    35     1
   31    33    36     1
   34    33    35     1
   34    33    36     1
   35    33    36     1
   33    36    37     1
   33    36    38     1
   33    36    39     1
   37    36    38     1
   37    36    39     1
   38    36    39     1
   36    39    40     1
   36    39    41     1
   40    39    41     1
   31    42    43     1
   31    42    44     1
   43    42    44     1
   42    44    45     1
   42    44    46     1
   45    44    46     1
   44    46    47     1
   44    46    48     1
   44    46    52     1
   47    46    48     1
   47    46    52     1
   48    46    52     1
   46    48    49     1
   46    48    50     1
   46    48    51     1
   49    48    50     1
   49    48    51     1
   50    48    51     1
   46    52    53     1
   46    52    54     1
   53    52    54     1
   52    54    55     1
   52    54    56     1
   55    54    56     1
   54    56    57     1
   54    56    58     1
   54    56    73     1
   57    56    58     1
   57    56    73     1
   58    56    73     1
   56    58    59     1
   56    58    60     1
   56    58    61     1
   59    58    60     1
   59    58    61     1
   60    58    61     1
   58    61    62     1
   58    61    71     1
   62    61    71     1
   61    62    63     1
   61    62    64     1
   63    62    64     1
   62    64    65     1
   62    64    66     1
   65    64    66     1
   64    66    67     1
   64    66    69     1
   67    66    69     1
   66    67    68     1
   66    69    70     1
   66    69    71     1
   70    69    71     1
   61    71    69     1
   61    71    72     1
   69    71    72     1
   56    73    74     1
   56    73    75     1
   74    73    75     1
   73    75    76     1
   73    75    77     1
   76    75    77     1
   75    77    78     1
   75    77    79     1
   75    77    88     1
   78    77    79     1
   78    77    88     1
   79    77    88     1
   77    79    80     1
   77    79    81     1
   77    79    82     1
   80    79    81     1
   80    79    82     1
   81    79    82     1
   79    82    83     1
   79    82    84     1
   79    82    85     1
   83    82    84     1
   83    82    85     1
   84    82    85     1
   82    85    86     1
   82    85    87     1
   86    85    87     1
   77    88    89     1
   77    88    90     1
   89    88    90     1
   88    90    91     1
   88    90    92     1
   91    90    92     1
   90    92    93     1
   90    92    94     1
   90    92   105     1
   93    92    94     1
   93    92   105     1
   94    92   105     1
   92    94    95     1
   92    94    96     1
   92    94    97     1
   95    94    96     1
   95    94    97     1
   96    94    97     1
   94    97    98     1
   94    97    99     1
   94    97   100     1
   98    97    99     1
   98    97   100     1
   99    97   100     1
   97   100   101     1
  100   101   102     1
  100   101   103     1
  100   101   104     1
  102   101   103     1
  102   101   104     1
  103   101   104     1
   92   105   106     1
   92   105   107     1
  106   105   107     1
  105   107   108     1
  105   107   117     1
  108   107   117     1
  107   108   109     1
  107   108   110     1
  107   108   111     1
  109   108   110     1
  109   108   111     1
  110   108   111     1
  108   111   112     1
  108   111   113     1
  108   111   114     1
  112   111   113     1
  112   111   114     1
  113   111   114     1
  111   114   115     1
  111   114   116     1
  111   114   117     1
  115   114   116     1
  115   114   117     1
  116   114   117     1
  107   117   114     1
  107   117   118     1
  107   117   119     1
  114   117   118     1
  114   117   119     1
  118   117   119     1
  117   119   120     1
  117   119   121     1
  120   119   121     1
  119   121   122     1
  119   121   123     1
  122   121   123     1
  121   123   124     1
  121   123   125     1
  121   123   130     1
  124   123   125     1
  124   123   130     1
  125   123   130     1
  123   125   126     1
  123   125   127     1
  123   125   128     1
  126   125   127     1
  126   125   128     1
  127   125   128     1
  125   128   129     1
  123   130   131     1
  123   130   132     1
  131   130   132     1
  130   132   133     1
  130   132   134     1
  133   132   134     1
  132   134   135     1
  132   134   136     1
  132   134   145     1
  135   134   136     1
  135   134   145     1
  136   134   145     1
  134   136   137     1
  134   136   138     1
  134   136   139     1
  137   136   138     1
  137   136   139     1
  138   136   139     1
  136   139   140     1
  136   139   141     1
  136   139   142     1
  140   139   141     1
  140   139   142     1
  141   139   142     1
  139   142   143     1
  139   142   144     1
  143   142   144     1
  134   145   146     1
  134   145   147     1
  146   145   147     1
  145   147   148     1
  145   147   149     1
  148   147   149     1
  147   149   150     1
  147   149   151     1
  147   149   160     1
  150   149   151     1
  150   149   160     1
  151   149   160     1
  149   151   152     1
  149   151   153     1
  149   151   154     1
  152   151   153     1
  152   151   154     1
  153   151   154     1
  151   154   155     1
  151   154   156     1
  151   154   157     1
  155   154   156     1
  155   154   157     1
  156   154   157     1
  154   157   158     1
  154   157   159     1
  158   157   159     1
  149   160   161     1
  149   160   162     1
  161   160   162     1
  160   162   163     1
  160   162   164     1
  163   162   164     1
  162   164   165     1
  162   164   166     1
  162   164   167     1
  165   164   166     1
  165   164   167     1
  166   164   167     1
  164   167   168     1
  164   167   169     1
  168   167   169     1
  167   169   170     1
  167   169   171     1
  170   169   171     1
  169   171   172     1
  169   171   173     1
  169   171   188     1
  172   171   173     1
  172   171   188     1
  173   171   188     1
  171   173   174     1
  171   173   175     1
  171   173   176     1
  174   173   175     1
  174   173   176     1
  175   173   176     1
  173   176   177     1
  173   176   186     1
  177   176   186     1
  176   177   178     1
  176   177   179     1
  178   177   179     1
  177   179   180     1
  177   179   181     1
  180   179   181     1
  179   181   182     1
  179   181   184     1
  182   181   184     1
  181   182   183     1
  181   184   185     1
  181   184   186     1
  185   184   186     1
  176   186   184     1
  176   186   187     1
  184   186   187     1
  171   188   189     1
  171   188   190     1
  189   188   190     1
  188   190   191     1
  188   190   192     1
  191   190   192     1
  190   192   193     1
  190   192   194     1
  190   192   205     1
  193   192   194     1
  193   192   205     1
  194   192   205     1
  192   194   195     1
  192   194   196     1
  192   194   197     1
  195   194   196     1
  195   194   197     1
  196   194   197     1
  194   197   198     1
  194   197   199     1
  194   197   200     1
  198   197   199     1
  198   197   200     1
  199   197   200     1
  197   200   201     1
  197   200   202     1
  201   200   202     1
  200   202   203     1
  200   202   204     1
  203   202   204     1
  192   205   206     1
  192   205   207     1
  206   205   207     1
  205   207   208     1
  205   207   209     1
  208   207   209     1
  207   209   210     1
  207   209   211     1
  207   209   217     1
  210   209   211     1
  210   209   217     1
  211   209   217     1
  209   211   212     1
  209   211   213     1
  209   211   214     1
  212   211   213     1
  212   211   214     1
  213   211   214     1
  211   214   215     1
  211   214   216     1
  215   214   216     1
  209   217   218     1
  209   217   219     1
  218   217   219     1
  217   219   220     1
  217   219   221     1
  220   219   221     1
  219   221   222     1
  219   221   223     1
  219   221   238     1
  222   221   223     1
  222   221   238     1
  223   221   238     1
  221   223   224     1
  221   223   225     1
  221   223   226     1
  224   223   225     1
  224   223   226     1
  225   223   226     1
  223   226   227     1
  223   226   236     1
  227   226   236     1
  226   227   228     1
  226   227   229     1
  228   227   229     1
  227   229   230     1
  227   229   231     1
  230   229   231     1
  229   231   232     1
  229   231   234     1
  232   231   234     1
  231   232   233     1
  231   234   235     1
  231   234   236     1
  235   234   236     1
  226   236   234     1
  226   236   237     1
  234   236   237     1
  221   238   239     1
  221   238   240     1
  239   238   240     1
  238   240   241     1
  238   240   242     1
  241   240   242     1
  240   242   243     1
  240   242   244     1
  240   242   253     1
  243   242   244     1
  243   242   253     1
  244   242   253     1
  242   244   245     1
  242   244   246     1
  242   244   247     1
  245   244   246     1
  245   244   247     1
  246   244   247     1
  244   247   248     1
  244   247   249     1
  244   247   250     1
  248   247   249     1
  248   247   250     1
  249   247   250     1
  247   250   251     1
  247   250   252     1
  251   250   252     1
  242   253   254     1
  242   253   255     1
  254   253   255     1
  253   255   256     1
  253   255   265     1
  256   255   265     1
  255   256   257     1
  255   256   258     1
  255   256   259     1
  257   256   258     1
  257   256   259     1
  258   256   259     1
  256   259   260     1
  256   259   261     1
  256   259   262     1
  260   259   261     1
  260   259   262     1
  261   259   262     1
  259   262   263     1
  259   262   264     1
  259   262   265     1
  263   262   264     1
  263   262   265     1
  264   262   265     1
  255   265   262     1
  255   265   266     1
  255   265   267     1
  262   265   266     1
  262   265   267     1
  266   265   267     1
  265   267   268     1
  265   267   269     1
  268   267   269     1
  267   269   270     1
  267   269   271     1
  270   269   271     1
  269   271   272     1
  269   271   273     1
  269   271   282     1
  272   271   273     1
  272   271   282     1
  273   271   282     1
  271   273   274     1
  271   273   275     1
  271   273   276     1
  274   273   275     1
  274   273   276     1
  275   273   276     1
  273   276   277     1
  273   276   278     1
  273   276   279     1
  277   276   278     1
  277   276   279     1
  278   276   279     1
  276   279   280     1
  276   279   281     1
  280   279   281     1
  271   282   283     1
  271   282   284     1
  283   282   284     1
  282   284   285     1
  282   284   286     1
  285   284   286     1
  284   286   287     1
  284   286   288     1
  284   286   292     1
  287   286   288     1
  287   286   292     1
  288   286   292     1
  286   288   289     1
  286   288   290     1
  286   288   291     1
  289   288   290     1
  289   288   291     1
  290   288   291     1
  286   292   293     1
  286   292   294     1
  293   292   294     1


[ dihedrals ]
2         1     5     6     9    0.0       0.57965   3
2         1     5     7     9    0.0       0.57965   3
2         1     5    13     9    0.0       0.57965   3
3         1     5     6     9    0.0       0.57965   3
3         1     5     7     9    0.0       0.57965   3
3         1     5    13     9    0.0       0.57965   3
4         1     5     6     9    0.0       0.57965   3
4         1     5     7     9    0.0       0.57965   3
4         1     5    13     9    0.0       0.57965   3
1         5     7     8     9    0.0       0.57965   3
1         5     7     9     9    0.0       0.57965   3
1         5     7    10     9    180.0     9.81960   1
1         5     7    10     9    180.0     4.43544   2
1         5     7    10     9    180.0     0.02534   3
1         5     7    10     9    0.0       1.57512   4
1         5     7    10     9    0.0       0.86339   5
1         5     7    10     9    180.0     0.79272   6
6         5     7     8     9    0.0       0.57965   3
6         5     7     9     9    0.0       0.57965   3
6         5     7    10     9    0.0       0.57965   3
13        5     7     8     9    0.0       0.57965   3
13        5     7     9     9    0.0       0.57965   3
13        5     7    10     9    0.0       0.57965   3
1         5    13    14     9    0.0       0.00000   0
1         5    13    15     9    0.0       0.00000   0
6         5    13    14     9    0.0       0.00000   0
6         5    13    15     9    0.0       0.00000   0
7         5    13    14     9    0.0       0.00000   0
7         5    13    15     9    0.0       0.74526   1
7         5    13    15     9    0.0       0.74526   2
7         5    13    15     9    0.0       1.49053   3
5         7    10    11     9    180.0     0.69309   4
5         7    10    11     9    180.0     1.31912   6
5         7    10    11     9    180.0     3.25307   2
5         7    10    12     9    180.0     0.69309   4
5         7    10    12     9    180.0     1.31912   6
5         7    10    12     9    180.0     3.25307   2
8         7    10    11     9    0.0       0.00000   0
8         7    10    12     9    0.0       0.00000   0
9         7    10    11     9    0.0       0.00000   0
9         7    10    12     9    0.0       0.00000   0
5        13    15    16     9    180.0     9.31579   2
5        13    15    17     9    180.0     9.31579   2
14       13    15    16     9    0.0       7.45264   1
14       13    15    16     9    180.0     9.31579   2
14       13    15    17     9    180.0     9.31579   2
13       15    17    18     9    0.0       0.00000   0
13       15    17    19     9    0.0       1.49053   3
13       15    17    19     9    0.0       7.45264   1
13       15    17    19     9    0.0       7.45264   2
13       15    17    27     9    180.0     0.12670   1
13       15    17    27     9    0.0       1.24832   2
13       15    17    27     9    0.0       2.02712   3
13       15    17    27     9    0.0       0.29811   4
16       15    17    18     9    0.0       0.00000   0
16       15    17    19     9    0.0       0.00000   0
16       15    17    27     9    0.0       0.00000   0
15       17    19    20     9    0.0       0.57965   3
15       17    19    21     9    0.0       0.57965   3
15       17    19    22     9    180.0     2.34758   1
18       17    19    20     9    0.0       0.57965   3
18       17    19    21     9    0.0       0.57965   3
18       17    19    22     9    0.0       0.57965   3
27       17    19    20     9    0.0       0.57965   3
27       17    19    21     9    0.0       0.57965   3
27       17    19    22     9    0.0       0.63608   1
27       17    19    22     9    180.0     2.21977   2
27       17    19    22     9    0.0       0.44157   3
27       17    19    22     9    180.0     1.55462   4
27       17    19    22     9    0.0       0.38828   5
27       17    19    22     9    180.0     0.37532   6
15       17    27    28     9    0.0       0.00000   0
15       17    27    29     9    360.0     0.73409   1
15       17    27    29     9    180.0     5.38453   2
15       17    27    29     9    180.0     1.78491   3
15       17    27    29     9    360.0     0.07117   4
15       17    27    29     9    360.0     0.01491   5
18       17    27    28     9    0.0       2.98105   1
18       17    27    28     9    180.0     0.29811   3
18       17    27    29     9    0.0       0.00000   0
19       17    27    28     9    0.0       0.00000   0
19       17    27    29     9    0.0       0.74526   1
19       17    27    29     9    0.0       0.74526   2
19       17    27    29     9    0.0       1.49053   3
17       19    22    23     9    180.0     3.72632   1
17       19    22    24     9    180.0     3.89885   1
17       19    22    24     9    180.0     0.67446   2
17       19    22    24     9    180.0     0.13191   3
17       19    22    24     9    0.0       0.37375   4
17       19    22    24     9    0.0       0.48367   5
17       19    22    24     9    180.0     0.39519   6
20       19    22    23     9    0.0       2.98105   1
20       19    22    23     9    180.0     0.29811   3
20       19    22    24     9    0.0       0.00000   0
21       19    22    23     9    0.0       2.98105   1
21       19    22    23     9    180.0     0.29811   3
21       19    22    24     9    0.0       0.00000   0
19       22    24    25     9    180.0     9.31579   2
19       22    24    26     9    180.0     9.31579   2
23       22    24    25     9    0.0       7.45264   1
23       22    24    25     9    180.0     9.31579   2
23       22    24    26     9    0.0       7.45264   1
23       22    24    26     9    180.0     9.31579   2
17       27    29    30     9    180.0     9.31579   2
17       27    29    31     9    180.0     9.31579   2
28       27    29    30     9    0.0       7.45264   1
28       27    29    30     9    180.0     9.31579   2
28       27    29    31     9    180.0     9.31579   2
27       29    31    32     9    0.0       0.00000   0
27       29    31    33     9    0.0       1.49053   3
27       29    31    33     9    0.0       7.45264   1
27       29    31    33     9    0.0       7.45264   2
27       29    31    42     9    180.0     0.12670   1
27       29    31    42     9    0.0       1.24832   2
27       29    31    42     9    0.0       2.02712   3
27       29    31    42     9    0.0       0.29811   4
30       29    31    32     9    0.0       0.00000   0
30       29    31    33     9    0.0       0.00000   0
30       29    31    42     9    0.0       0.00000   0
29       31    33    34     9    0.0       0.57965   3
29       31    33    35     9    0.0       0.57965   3
29       31    33    36     9    0.0       0.37263   1
32       31    33    34     9    0.0       0.57965   3
32       31    33    35     9    0.0       0.57965   3
32       31    33    36     9    0.0       0.57965   3
42       31    33    34     9    0.0       0.57965   3
42       31    33    35     9    0.0       0.57965   3
42       31    33    36     9    0.0       1.11790   1
29       31    42    43     9    0.0       0.00000   0
29       31    42    44     9    360.0     0.73409   1
29       31    42    44     9    180.0     5.38453   2
29       31    42    44     9    180.0     1.78491   3
29       31    42    44     9    360.0     0.07117   4
29       31    42    44     9    360.0     0.01491   5
32       31    42    43     9    0.0       2.98105   1
32       31    42    43     9    180.0     0.29811   3
32       31    42    44     9    0.0       0.00000   0
33       31    42    43     9    0.0       0.00000   0
33       31    42    44     9    0.0       0.74526   1
33       31    42    44     9    0.0       0.74526   2
33       31    42    44     9    0.0       1.49053   3
31       33    36    37     9    0.0       0.57758   3
31       33    36    38     9    0.0       0.57758   3
31       33    36    39     9    0.0       0.57758   3
34       33    36    37     9    0.0       0.57758   3
34       33    36    38     9    0.0       0.57758   3
34       33    36    39     9    0.0       0.57758   3
35       33    36    37     9    0.0       0.57758   3
35       33    36    38     9    0.0       0.57758   3
35       33    36    39     9    0.0       0.57758   3
33       36    39    40     9    180.0     2.23579   2
33       36    39    41     9    180.0     2.23579   2
37       36    39    40     9    0.0       0.00000   0
37       36    39    41     9    0.0       0.00000   0
38       36    39    40     9    0.0       0.00000   0
38       36    39    41     9    0.0       0.00000   0
31       42    44    45     9    180.0     9.31579   2
31       42    44    46     9    180.0     9.31579   2
43       42    44    45     9    0.0       7.45264   1
43       42    44    45     9    180.0     9.31579   2
43       42    44    46     9    180.0     9.31579   2
42       44    46    47     9    0.0       0.00000   0
42       44    46    48     9    0.0       1.49053   3
42       44    46    48     9    0.0       7.45264   1
42       44    46    48     9    0.0       7.45264   2
42       44    46    52     9    180.0     0.12670   1
42       44    46    52     9    0.0       1.24832   2
42       44    46    52     9    0.0       2.02712   3
42       44    46    52     9    0.0       0.29811   4
45       44    46    47     9    0.0       0.00000   0
45       44    46    48     9    0.0       0.00000   0
45       44    46    52     9    0.0       0.00000   0
44       46    48    49     9    0.0       0.57965   3
44       46    48    50     9    0.0       0.57965   3
44       46    48    51     9    0.0       0.57965   3
47       46    48    49     9    0.0       0.57965   3
47       46    48    50     9    0.0       0.57965   3
47       46    48    51     9    0.0       0.57965   3
52       46    48    49     9    0.0       0.57965   3
52       46    48    50     9    0.0       0.57965   3
52       46    48    51     9    0.0       0.57965   3
44       46    52    53     9    0.0       0.00000   0
44       46    52    54     9    360.0     0.73409   1
44       46    52    54     9    180.0     5.38453   2
44       46    52    54     9    180.0     1.78491   3
44       46    52    54     9    360.0     0.07117   4
44       46    52    54     9    360.0     0.01491   5
47       46    52    53     9    0.0       2.98105   1
47       46    52    53     9    180.0     0.29811   3
47       46    52    54     9    0.0       0.00000   0
48       46    52    53     9    0.0       0.00000   0
48       46    52    54     9    0.0       0.74526   1
48       46    52    54     9    0.0       0.74526   2
48       46    52    54     9    0.0       1.49053   3
46       52    54    55     9    180.0     9.31579   2
46       52    54    56     9    180.0     9.31579   2
53       52    54    55     9    0.0       7.45264   1
53       52    54    55     9    180.0     9.31579   2
53       52    54    56     9    180.0     9.31579   2
52       54    56    57     9    0.0       0.00000   0
52       54    56    58     9    0.0       1.49053   3
52       54    56    58     9    0.0       7.45264   1
52       54    56    58     9    0.0       7.45264   2
52       54    56    73     9    180.0     0.12670   1
52       54    56    73     9    0.0       1.24832   2
52       54    56    73     9    0.0       2.02712   3
52       54    56    73     9    0.0       0.29811   4
55       54    56    57     9    0.0       0.00000   0
55       54    56    58     9    0.0       0.00000   0
55       54    56    73     9    0.0       0.00000   0
54       56    58    59     9    0.0       0.57965   3
54       56    58    60     9    0.0       0.57965   3
54       56    58    61     9    0.0       0.00000   0
57       56    58    59     9    0.0       0.57965   3
57       56    58    60     9    0.0       0.57965   3
57       56    58    61     9    0.0       0.57965   3
73       56    58    59     9    0.0       0.57965   3
73       56    58    60     9    0.0       0.57965   3
73       56    58    61     9    0.0       1.93769   1
54       56    73    74     9    0.0       0.00000   0
54       56    73    75     9    360.0     0.73409   1
54       56    73    75     9    180.0     5.38453   2
54       56    73    75     9    180.0     1.78491   3
54       56    73    75     9    360.0     0.07117   4
54       56    73    75     9    360.0     0.01491   5
57       56    73    74     9    0.0       2.98105   1
57       56    73    74     9    180.0     0.29811   3
57       56    73    75     9    0.0       0.00000   0
58       56    73    74     9    0.0       0.00000   0
58       56    73    75     9    0.0       0.74526   1
58       56    73    75     9    0.0       0.74526   2
58       56    73    75     9    0.0       1.49053   3
56       58    61    62     9    0.0       0.00000   0
56       58    61    71     9    0.0       0.00000   0
59       58    61    62     9    0.0       0.00000   0
59       58    61    71     9    0.0       0.00000   0
60       58    61    62     9    0.0       0.00000   0
60       58    61    71     9    0.0       0.00000   0
58       61    62    63     9    180.0     13.50790  2
58       61    62    64     9    180.0     13.50790  2
71       61    62    63     9    180.0     13.50790  2
71       61    62    64     9    180.0     13.50790  2
58       61    71    69     9    180.0     13.50790  2
58       61    71    72     9    180.0     13.50790  2
62       61    71    69     9    180.0     13.50790  2
62       61    71    72     9    180.0     13.50790  2
61       62    64    65     9    180.0     13.50790  2
61       62    64    66     9    180.0     13.50790  2
63       62    64    65     9    180.0     13.50790  2
63       62    64    66     9    180.0     13.50790  2
62       64    66    67     9    180.0     13.50790  2
62       64    66    69     9    180.0     13.50790  2
65       64    66    67     9    180.0     13.50790  2
65       64    66    69     9    180.0     13.50790  2
64       66    67    68     9    180.0     8.57053   2
69       66    67    68     9    180.0     8.57053   2
64       66    69    70     9    180.0     13.50790  2
64       66    69    71     9    180.0     13.50790  2
67       66    69    70     9    180.0     13.50790  2
67       66    69    71     9    180.0     13.50790  2
66       69    71    61     9    180.0     13.50790  2
66       69    71    72     9    180.0     13.50790  2
70       69    71    61     9    180.0     13.50790  2
70       69    71    72     9    180.0     13.50790  2
56       73    75    76     9    180.0     9.31579   2
56       73    75    77     9    180.0     9.31579   2
74       73    75    76     9    0.0       7.45264   1
74       73    75    76     9    180.0     9.31579   2
74       73    75    77     9    180.0     9.31579   2
73       75    77    78     9    0.0       0.00000   0
73       75    77    79     9    0.0       1.49053   3
73       75    77    79     9    0.0       7.45264   1
73       75    77    79     9    0.0       7.45264   2
73       75    77    88     9    180.0     0.12670   1
73       75    77    88     9    0.0       1.24832   2
73       75    77    88     9    0.0       2.02712   3
73       75    77    88     9    0.0       0.29811   4
76       75    77    78     9    0.0       0.00000   0
76       75    77    79     9    0.0       0.00000   0
76       75    77    88     9    0.0       0.00000   0
75       77    79    80     9    0.0       0.57965   3
75       77    79    81     9    0.0       0.57965   3
75       77    79    82     9    0.0       0.37263   1
78       77    79    80     9    0.0       0.57965   3
78       77    79    81     9    0.0       0.57965   3
78       77    79    82     9    0.0       0.57965   3
88       77    79    80     9    0.0       0.57965   3
88       77    79    81     9    0.0       0.57965   3
88       77    79    82     9    0.0       1.11790   1
75       77    88    89     9    0.0       0.00000   0
75       77    88    90     9    360.0     0.73409   1
75       77    88    90     9    180.0     5.38453   2
75       77    88    90     9    180.0     1.78491   3
75       77    88    90     9    360.0     0.07117   4
75       77    88    90     9    360.0     0.01491   5
78       77    88    89     9    0.0       2.98105   1
78       77    88    89     9    180.0     0.29811   3
78       77    88    90     9    0.0       0.00000   0
79       77    88    89     9    0.0       0.00000   0
79       77    88    90     9    0.0       0.74526   1
79       77    88    90     9    0.0       0.74526   2
79       77    88    90     9    0.0       1.49053   3
77       79    82    83     9    0.0       0.57758   3
77       79    82    84     9    0.0       0.57758   3
77       79    82    85     9    0.0       0.57758   3
80       79    82    83     9    0.0       0.57758   3
80       79    82    84     9    0.0       0.57758   3
80       79    82    85     9    0.0       0.57758   3
81       79    82    83     9    0.0       0.57758   3
81       79    82    84     9    0.0       0.57758   3
81       79    82    85     9    0.0       0.57758   3
79       82    85    86     9    180.0     2.23579   2
79       82    85    87     9    180.0     2.23579   2
83       82    85    86     9    0.0       0.00000   0
83       82    85    87     9    0.0       0.00000   0
84       82    85    86     9    0.0       0.00000   0
84       82    85    87     9    0.0       0.00000   0
77       88    90    91     9    180.0     9.31579   2
77       88    90    92     9    180.0     9.31579   2
89       88    90    91     9    0.0       7.45264   1
89       88    90    91     9    180.0     9.31579   2
89       88    90    92     9    180.0     9.31579   2
88       90    92    93     9    0.0       0.00000   0
88       90    92    94     9    0.0       1.49053   3
88       90    92    94     9    0.0       7.45264   1
88       90    92    94     9    0.0       7.45264   2
88       90    92   105     9    180.0     0.12670   1
88       90    92   105     9    0.0       1.24832   2
88       90    92   105     9    0.0       2.02712   3
88       90    92   105     9    0.0       0.29811   4
91       90    92    93     9    0.0       0.00000   0
91       90    92    94     9    0.0       0.00000   0
91       90    92   105     9    0.0       0.00000   0
90       92    94    95     9    0.0       0.57965   3
90       92    94    96     9    0.0       0.57965   3
90       92    94    97     9    0.0       0.37263   1
93       92    94    95     9    0.0       0.57965   3
93       92    94    96     9    0.0       0.57965   3
93       92    94    97     9    0.0       0.57965   3
105      92    94    95     9    0.0       0.57965   3
105      92    94    96     9    0.0       0.57965   3
105      92    94    97     9    0.0       1.11790   1
90       92   105   106     9    0.0       0.00000   0
90       92   105   107     9    360.0     0.73409   1
90       92   105   107     9    180.0     5.38453   2
90       92   105   107     9    180.0     1.78491   3
90       92   105   107     9    360.0     0.07117   4
90       92   105   107     9    360.0     0.01491   5
93       92   105   106     9    0.0       2.98105   1
93       92   105   106     9    180.0     0.29811   3
93       92   105   107     9    0.0       0.00000   0
94       92   105   106     9    0.0       0.00000   0
94       92   105   107     9    0.0       0.74526   1
94       92   105   107     9    0.0       0.74526   2
94       92   105   107     9    0.0       1.49053   3
92       94    97    98     9    0.0       0.57758   3
92       94    97    99     9    0.0       0.57758   3
92       94    97   100     9    0.0       0.00000   0
95       94    97    98     9    0.0       0.57758   3
95       94    97    99     9    0.0       0.57758   3
95       94    97   100     9    0.0       0.57758   3
96       94    97    98     9    0.0       0.57758   3
96       94    97    99     9    0.0       0.57758   3
96       94    97   100     9    0.0       0.57758   3
94       97   100   101     9    0.0       1.24086   3
98       97   100   101     9    0.0       1.24086   3
99       97   100   101     9    0.0       1.24086   3
97      100   101   102     9    0.0       1.24211   3
97      100   101   103     9    0.0       1.24211   3
97      100   101   104     9    0.0       1.24211   3
92      105   107   108     9    180.0     9.31579   2
92      105   107   117     9    180.0     9.31579   2
106     105   107   108     9    180.0     9.31579   2
106     105   107   117     9    180.0     9.31579   2
105     107   108   109     9    0.0       0.00000   0
105     107   108   110     9    0.0       0.00000   0
105     107   108   111     9    0.0       1.49053   3
105     107   108   111     9    0.0       7.45264   1
105     107   108   111     9    0.0       7.45264   2
117     107   108   109     9    0.0       0.00000   0
117     107   108   110     9    0.0       0.00000   0
117     107   108   111     9    0.0       0.00000   0
105     107   117   114     9    0.0       7.45264   1
105     107   117   114     9    0.0       7.45264   2
105     107   117   114     9    0.0       1.49053   3
105     107   117   118     9    0.0       0.00000   0
105     107   117   119     9    0.0       1.00611   2
105     107   117   119     9    0.0       1.56505   3
108     107   117   114     9    0.0       0.00000   0
108     107   117   118     9    0.0       0.00000   0
108     107   117   119     9    0.0       0.00000   0
107     108   111   112     9    0.0       0.57965   3
107     108   111   113     9    0.0       0.57965   3
107     108   111   114     9    0.0       0.57965   3
109     108   111   112     9    0.0       0.57965   3
109     108   111   113     9    0.0       0.57965   3
109     108   111   114     9    0.0       0.57965   3
110     108   111   112     9    0.0       0.57965   3
110     108   111   113     9    0.0       0.57965   3
110     108   111   114     9    0.0       0.57965   3
108     111   114   115     9    0.0       0.59621   3
108     111   114   116     9    0.0       0.59621   3
108     111   114   117     9    0.0       0.67074   3
108     111   114   117     9    180.0     0.74526   1
108     111   114   117     9    180.0     0.93158   2
112     111   114   115     9    0.0       0.55895   3
112     111   114   116     9    0.0       0.55895   3
112     111   114   117     9    0.0       0.59621   3
113     111   114   115     9    0.0       0.55895   3
113     111   114   116     9    0.0       0.55895   3
113     111   114   117     9    0.0       0.59621   3
111     114   117   107     9    0.0       0.57965   3
111     114   117   118     9    0.0       0.57965   3
111     114   117   119     9    0.0       0.57965   3
115     114   117   107     9    0.0       0.57965   3
115     114   117   118     9    0.0       0.57965   3
115     114   117   119     9    0.0       0.57965   3
116     114   117   107     9    0.0       0.57965   3
116     114   117   118     9    0.0       0.57965   3
116     114   117   119     9    0.0       0.57965   3
107     117   119   120     9    0.0       0.00000   0
107     117   119   121     9    180.0     1.67684   1
107     117   119   121     9    180.0     5.88758   2
107     117   119   121     9    180.0     2.04947   3
114     117   119   120     9    0.0       0.00000   0
114     117   119   121     9    0.0       0.74526   1
114     117   119   121     9    0.0       0.74526   2
114     117   119   121     9    0.0       1.49053   3
118     117   119   120     9    0.0       2.98105   1
118     117   119   120     9    180.0     0.29811   3
118     117   119   121     9    0.0       0.00000   0
117     119   121   122     9    180.0     9.31579   2
117     119   121   123     9    180.0     9.31579   2
120     119   121   122     9    0.0       7.45264   1
120     119   121   122     9    180.0     9.31579   2
120     119   121   123     9    180.0     9.31579   2
119     121   123   124     9    0.0       0.00000   0
119     121   123   125     9    0.0       7.45264   1
119     121   123   125     9    0.0       7.45264   2
119     121   123   125     9    0.0       1.49053   3
119     121   123   130     9    180.0     0.12670   1
119     121   123   130     9    0.0       1.24832   2
119     121   123   130     9    0.0       2.02712   3
119     121   123   130     9    0.0       0.29811   4
122     121   123   124     9    0.0       0.00000   0
122     121   123   125     9    0.0       0.00000   0
122     121   123   130     9    0.0       0.00000   0
121     123   125   126     9    0.0       0.57758   3
121     123   125   127     9    0.0       0.57758   3
121     123   125   128     9    180.0     0.93158   1
124     123   125   126     9    0.0       0.57758   3
124     123   125   127     9    0.0       0.57758   3
124     123   125   128     9    0.0       0.57758   3
130     123   125   126     9    0.0       0.57758   3
130     123   125   127     9    0.0       0.57758   3
130     123   125   128     9    180.0     3.35369   1
121     123   130   131     9    0.0       0.00000   0
121     123   130   132     9    360.0     0.73409   1
121     123   130   132     9    180.0     5.38453   2
121     123   130   132     9    180.0     1.78491   3
121     123   130   132     9    360.0     0.07117   4
121     123   130   132     9    360.0     0.01491   5
124     123   130   131     9    0.0       2.98105   1
124     123   130   131     9    180.0     0.29811   3
124     123   130   132     9    0.0       0.00000   0
125     123   130   131     9    0.0       0.00000   0
125     123   130   132     9    0.0       0.74526   1
125     123   130   132     9    0.0       0.74526   2
125     123   130   132     9    0.0       1.49053   3
123     125   128   129     9    0.0       0.22358   2
123     125   128   129     9    0.0       0.74526   3
123     125   128   129     9    0.0       2.79474   1
126     125   128   129     9    0.0       0.62230   3
127     125   128   129     9    0.0       0.62230   3
123     130   132   133     9    180.0     9.31579   2
123     130   132   134     9    180.0     9.31579   2
131     130   132   133     9    0.0       7.45264   1
131     130   132   133     9    180.0     9.31579   2
131     130   132   134     9    180.0     9.31579   2
130     132   134   135     9    0.0       0.00000   0
130     132   134   136     9    0.0       1.49053   3
130     132   134   136     9    0.0       7.45264   1
130     132   134   136     9    0.0       7.45264   2
130     132   134   145     9    180.0     0.12670   1
130     132   134   145     9    0.0       1.24832   2
130     132   134   145     9    0.0       2.02712   3
130     132   134   145     9    0.0       0.29811   4
133     132   134   135     9    0.0       0.00000   0
133     132   134   136     9    0.0       0.00000   0
133     132   134   145     9    0.0       0.00000   0
132     134   136   137     9    0.0       0.57965   3
132     134   136   138     9    0.0       0.57965   3
132     134   136   139     9    0.0       0.37263   1
135     134   136   137     9    0.0       0.57965   3
135     134   136   138     9    0.0       0.57965   3
135     134   136   139     9    0.0       0.57965   3
145     134   136   137     9    0.0       0.57965   3
145     134   136   138     9    0.0       0.57965   3
145     134   136   139     9    0.0       1.11790   1
132     134   145   146     9    0.0       0.00000   0
132     134   145   147     9    360.0     0.73409   1
132     134   145   147     9    180.0     5.38453   2
132     134   145   147     9    180.0     1.78491   3
132     134   145   147     9    360.0     0.07117   4
132     134   145   147     9    360.0     0.01491   5
135     134   145   146     9    0.0       2.98105   1
135     134   145   146     9    180.0     0.29811   3
135     134   145   147     9    0.0       0.00000   0
136     134   145   146     9    0.0       0.00000   0
136     134   145   147     9    0.0       0.74526   1
136     134   145   147     9    0.0       0.74526   2
136     134   145   147     9    0.0       1.49053   3
134     136   139   140     9    0.0       0.57758   3
134     136   139   141     9    0.0       0.57758   3
134     136   139   142     9    0.0       0.57758   3
137     136   139   140     9    0.0       0.57758   3
137     136   139   141     9    0.0       0.57758   3
137     136   139   142     9    0.0       0.57758   3
138     136   139   140     9    0.0       0.57758   3
138     136   139   141     9    0.0       0.57758   3
138     136   139   142     9    0.0       0.57758   3
136     139   142   143     9    180.0     2.23579   2
136     139   142   144     9    180.0     2.23579   2
140     139   142   143     9    0.0       0.00000   0
140     139   142   144     9    0.0       0.00000   0
141     139   142   143     9    0.0       0.00000   0
141     139   142   144     9    0.0       0.00000   0
134     145   147   148     9    180.0     9.31579   2
134     145   147   149     9    180.0     9.31579   2
146     145   147   148     9    0.0       7.45264   1
146     145   147   148     9    180.0     9.31579   2
146     145   147   149     9    180.0     9.31579   2
145     147   149   150     9    0.0       0.00000   0
145     147   149   151     9    0.0       1.49053   3
145     147   149   151     9    0.0       7.45264   1
145     147   149   151     9    0.0       7.45264   2
145     147   149   160     9    180.0     0.12670   1
145     147   149   160     9    0.0       1.24832   2
145     147   149   160     9    0.0       2.02712   3
145     147   149   160     9    0.0       0.29811   4
148     147   149   150     9    0.0       0.00000   0
148     147   149   151     9    0.0       0.00000   0
148     147   149   160     9    0.0       0.00000   0
147     149   151   152     9    0.0       0.57965   3
147     149   151   153     9    0.0       0.57965   3
147     149   151   154     9    0.0       0.37263   1
150     149   151   152     9    0.0       0.57965   3
150     149   151   153     9    0.0       0.57965   3
150     149   151   154     9    0.0       0.57965   3
160     149   151   152     9    0.0       0.57965   3
160     149   151   153     9    0.0       0.57965   3
160     149   151   154     9    0.0       1.11790   1
147     149   160   161     9    0.0       0.00000   0
147     149   160   162     9    360.0     0.73409   1
147     149   160   162     9    180.0     5.38453   2
147     149   160   162     9    180.0     1.78491   3
147     149   160   162     9    360.0     0.07117   4
147     149   160   162     9    360.0     0.01491   5
150     149   160   161     9    0.0       2.98105   1
150     149   160   161     9    180.0     0.29811   3
150     149   160   162     9    0.0       0.00000   0
151     149   160   161     9    0.0       0.00000   0
151     149   160   162     9    0.0       0.74526   1
151     149   160   162     9    0.0       0.74526   2
151     149   160   162     9    0.0       1.49053   3
149     151   154   155     9    0.0       0.57758   3
149     151   154   156     9    0.0       0.57758   3
149     151   154   157     9    0.0       0.57758   3
152     151   154   155     9    0.0       0.57758   3
152     151   154   156     9    0.0       0.57758   3
152     151   154   157     9    0.0       0.57758   3
153     151   154   155     9    0.0       0.57758   3
153     151   154   156     9    0.0       0.57758   3
153     151   154   157     9    0.0       0.57758   3
151     154   157   158     9    180.0     2.23579   2
151     154   157   159     9    180.0     2.23579   2
155     154   157   158     9    0.0       0.00000   0
155     154   157   159     9    0.0       0.00000   0
156     154   157   158     9    0.0       0.00000   0
156     154   157   159     9    0.0       0.00000   0
149     160   162   163     9    180.0     9.31579   2
149     160   162   164     9    180.0     9.31579   2
161     160   162   163     9    0.0       7.45264   1
161     160   162   163     9    180.0     9.31579   2
161     160   162   164     9    180.0     9.31579   2
160     162   164   165     9    0.0       0.00000   0
160     162   164   166     9    0.0       0.00000   0
160     162   164   167     9    0.0       0.31409   1
160     162   164   167     9    0.0       1.42089   2
160     162   164   167     9    180.0     0.07464   3
160     162   164   167     9    0.0       0.28852   4
163     162   164   165     9    0.0       0.00000   0
163     162   164   166     9    0.0       0.00000   0
163     162   164   167     9    0.0       0.00000   0
162     164   167   168     9    0.0       0.00000   0
162     164   167   169     9    180.0     2.39971   1
162     164   167   169     9    180.0     5.95522   2
162     164   167   169     9    180.0     1.48831   3
162     164   167   169     9    0.0       0.27982   4
165     164   167   168     9    0.0       2.98105   1
165     164   167   168     9    180.0     0.29811   3
165     164   167   169     9    0.0       0.00000   0
166     164   167   168     9    0.0       2.98105   1
166     164   167   168     9    180.0     0.29811   3
166     164   167   169     9    0.0       0.00000   0
164     167   169   170     9    180.0     9.31579   2
164     167   169   171     9    180.0     9.31579   2
168     167   169   170     9    0.0       7.45264   1
168     167   169   170     9    180.0     9.31579   2
168     167   169   171     9    180.0     9.31579   2
167     169   171   172     9    0.0       0.00000   0
167     169   171   173     9    0.0       1.49053   3
167     169   171   173     9    0.0       7.45264   1
167     169   171   173     9    0.0       7.45264   2
167     169   171   188     9    180.0     0.12670   1
167     169   171   188     9    0.0       1.24832   2
167     169   171   188     9    0.0       2.02712   3
167     169   171   188     9    0.0       0.29811   4
170     169   171   172     9    0.0       0.00000   0
170     169   171   173     9    0.0       0.00000   0
170     169   171   188     9    0.0       0.00000   0
169     171   173   174     9    0.0       0.57965   3
169     171   173   175     9    0.0       0.57965   3
169     171   173   176     9    0.0       0.00000   0
172     171   173   174     9    0.0       0.57965   3
172     171   173   175     9    0.0       0.57965   3
172     171   173   176     9    0.0       0.57965   3
188     171   173   174     9    0.0       0.57965   3
188     171   173   175     9    0.0       0.57965   3
188     171   173   176     9    0.0       1.93769   1
169     171   188   189     9    0.0       0.00000   0
169     171   188   190     9    360.0     0.73409   1
169     171   188   190     9    180.0     5.38453   2
169     171   188   190     9    180.0     1.78491   3
169     171   188   190     9    360.0     0.07117   4
169     171   188   190     9    360.0     0.01491   5
172     171   188   189     9    0.0       2.98105   1
172     171   188   189     9    180.0     0.29811   3
172     171   188   190     9    0.0       0.00000   0
173     171   188   189     9    0.0       0.00000   0
173     171   188   190     9    0.0       0.74526   1
173     171   188   190     9    0.0       0.74526   2
173     171   188   190     9    0.0       1.49053   3
171     173   176   177     9    0.0       0.00000   0
171     173   176   186     9    0.0       0.00000   0
174     173   176   177     9    0.0       0.00000   0
174     173   176   186     9    0.0       0.00000   0
175     173   176   177     9    0.0       0.00000   0
175     173   176   186     9    0.0       0.00000   0
173     176   177   178     9    180.0     13.50790  2
173     176   177   179     9    180.0     13.50790  2
186     176   177   178     9    180.0     13.50790  2
186     176   177   179     9    180.0     13.50790  2
173     176   186   184     9    180.0     13.50790  2
173     176   186   187     9    180.0     13.50790  2
177     176   186   184     9    180.0     13.50790  2
177     176   186   187     9    180.0     13.50790  2
176     177   179   180     9    180.0     13.50790  2
176     177   179   181     9    180.0     13.50790  2
178     177   179   180     9    180.0     13.50790  2
178     177   179   181     9    180.0     13.50790  2
177     179   181   182     9    180.0     13.50790  2
177     179   181   184     9    180.0     13.50790  2
180     179   181   182     9    180.0     13.50790  2
180     179   181   184     9    180.0     13.50790  2
179     181   182   183     9    180.0     8.57053   2
184     181   182   183     9    180.0     8.57053   2
179     181   184   185     9    180.0     13.50790  2
179     181   184   186     9    180.0     13.50790  2
182     181   184   185     9    180.0     13.50790  2
182     181   184   186     9    180.0     13.50790  2
181     184   186   176     9    180.0     13.50790  2
181     184   186   187     9    180.0     13.50790  2
185     184   186   176     9    180.0     13.50790  2
185     184   186   187     9    180.0     13.50790  2
171     188   190   191     9    180.0     9.31579   2
171     188   190   192     9    180.0     9.31579   2
189     188   190   191     9    0.0       7.45264   1
189     188   190   191     9    180.0     9.31579   2
189     188   190   192     9    180.0     9.31579   2
188     190   192   193     9    0.0       0.00000   0
188     190   192   194     9    0.0       1.49053   3
188     190   192   194     9    0.0       7.45264   1
188     190   192   194     9    0.0       7.45264   2
188     190   192   205     9    180.0     0.12670   1
188     190   192   205     9    0.0       1.24832   2
188     190   192   205     9    0.0       2.02712   3
188     190   192   205     9    0.0       0.29811   4
191     190   192   193     9    0.0       0.00000   0
191     190   192   194     9    0.0       0.00000   0
191     190   192   205     9    0.0       0.00000   0
190     192   194   195     9    0.0       0.57965   3
190     192   194   196     9    0.0       0.57965   3
190     192   194   197     9    0.0       0.37263   1
193     192   194   195     9    0.0       0.57965   3
193     192   194   196     9    0.0       0.57965   3
193     192   194   197     9    0.0       0.57965   3
205     192   194   195     9    0.0       0.57965   3
205     192   194   196     9    0.0       0.57965   3
205     192   194   197     9    0.0       1.11790   1
190     192   205   206     9    0.0       0.00000   0
190     192   205   207     9    360.0     0.73409   1
190     192   205   207     9    180.0     5.38453   2
190     192   205   207     9    180.0     1.78491   3
190     192   205   207     9    360.0     0.07117   4
190     192   205   207     9    360.0     0.01491   5
193     192   205   206     9    0.0       2.98105   1
193     192   205   206     9    180.0     0.29811   3
193     192   205   207     9    0.0       0.00000   0
194     192   205   206     9    0.0       0.00000   0
194     192   205   207     9    0.0       0.74526   1
194     192   205   207     9    0.0       0.74526   2
194     192   205   207     9    0.0       1.49053   3
192     194   197   198     9    0.0       0.57758   3
192     194   197   199     9    0.0       0.57758   3
192     194   197   200     9    0.0       0.57758   3
195     194   197   198     9    0.0       0.57758   3
195     194   197   199     9    0.0       0.57758   3
195     194   197   200     9    0.0       0.57758   3
196     194   197   198     9    0.0       0.57758   3
196     194   197   199     9    0.0       0.57758   3
196     194   197   200     9    0.0       0.57758   3
194     197   200   201     9    180.0     2.23579   2
194     197   200   202     9    0.0       0.00000   0
198     197   200   201     9    0.0       0.00000   0
198     197   200   202     9    0.0       0.00000   0
199     197   200   201     9    0.0       0.00000   0
199     197   200   202     9    0.0       0.00000   0
197     200   202   203     9    180.0     9.31579   2
197     200   202   204     9    180.0     9.31579   2
201     200   202   203     9    0.0       7.45264   1
201     200   202   203     9    180.0     9.31579   2
201     200   202   204     9    0.0       7.45264   1
201     200   202   204     9    180.0     9.31579   2
192     205   207   208     9    180.0     9.31579   2
192     205   207   209     9    180.0     9.31579   2
206     205   207   208     9    0.0       7.45264   1
206     205   207   208     9    180.0     9.31579   2
206     205   207   209     9    180.0     9.31579   2
205     207   209   210     9    0.0       0.00000   0
205     207   209   211     9    0.0       1.49053   3
205     207   209   211     9    0.0       7.45264   1
205     207   209   211     9    0.0       7.45264   2
205     207   209   217     9    180.0     0.12670   1
205     207   209   217     9    0.0       1.24832   2
205     207   209   217     9    0.0       2.02712   3
205     207   209   217     9    0.0       0.29811   4
208     207   209   210     9    0.0       0.00000   0
208     207   209   211     9    0.0       0.00000   0
208     207   209   217     9    0.0       0.00000   0
207     209   211   212     9    0.0       0.57965   3
207     209   211   213     9    0.0       0.57965   3
207     209   211   214     9    180.0     10.73552  1
207     209   211   214     9    180.0     4.51257   2
207     209   211   214     9    0.0       0.23103   3
207     209   211   214     9    0.0       0.91295   4
207     209   211   214     9    0.0       0.48814   5
207     209   211   214     9    180.0     0.52914   6
210     209   211   212     9    0.0       0.57965   3
210     209   211   213     9    0.0       0.57965   3
210     209   211   214     9    0.0       0.57965   3
217     209   211   212     9    0.0       0.57965   3
217     209   211   213     9    0.0       0.57965   3
217     209   211   214     9    0.0       0.57965   3
207     209   217   218     9    0.0       0.00000   0
207     209   217   219     9    360.0     0.73409   1
207     209   217   219     9    180.0     5.38453   2
207     209   217   219     9    180.0     1.78491   3
207     209   217   219     9    360.0     0.07117   4
207     209   217   219     9    360.0     0.01491   5
210     209   217   218     9    0.0       2.98105   1
210     209   217   218     9    180.0     0.29811   3
210     209   217   219     9    0.0       0.00000   0
211     209   217   218     9    0.0       0.00000   0
211     209   217   219     9    0.0       0.74526   1
211     209   217   219     9    0.0       0.74526   2
211     209   217   219     9    0.0       1.49053   3
209     211   214   215     9    180.0     0.69309   4
209     211   214   215     9    180.0     1.31912   6
209     211   214   215     9    180.0     3.25307   2
209     211   214   216     9    180.0     0.69309   4
209     211   214   216     9    180.0     1.31912   6
209     211   214   216     9    180.0     3.25307   2
212     211   214   215     9    0.0       0.00000   0
212     211   214   216     9    0.0       0.00000   0
213     211   214   215     9    0.0       0.00000   0
213     211   214   216     9    0.0       0.00000   0
209     217   219   220     9    180.0     9.31579   2
209     217   219   221     9    180.0     9.31579   2
218     217   219   220     9    0.0       7.45264   1
218     217   219   220     9    180.0     9.31579   2
218     217   219   221     9    180.0     9.31579   2
217     219   221   222     9    0.0       0.00000   0
217     219   221   223     9    0.0       1.49053   3
217     219   221   223     9    0.0       7.45264   1
217     219   221   223     9    0.0       7.45264   2
217     219   221   238     9    180.0     0.12670   1
217     219   221   238     9    0.0       1.24832   2
217     219   221   238     9    0.0       2.02712   3
217     219   221   238     9    0.0       0.29811   4
220     219   221   222     9    0.0       0.00000   0
220     219   221   223     9    0.0       0.00000   0
220     219   221   238     9    0.0       0.00000   0
219     221   223   224     9    0.0       0.57965   3
219     221   223   225     9    0.0       0.57965   3
219     221   223   226     9    0.0       0.00000   0
222     221   223   224     9    0.0       0.57965   3
222     221   223   225     9    0.0       0.57965   3
222     221   223   226     9    0.0       0.57965   3
238     221   223   224     9    0.0       0.57965   3
238     221   223   225     9    0.0       0.57965   3
238     221   223   226     9    0.0       1.93769   1
219     221   238   239     9    0.0       0.00000   0
219     221   238   240     9    360.0     0.73409   1
219     221   238   240     9    180.0     5.38453   2
219     221   238   240     9    180.0     1.78491   3
219     221   238   240     9    360.0     0.07117   4
219     221   238   240     9    360.0     0.01491   5
222     221   238   239     9    0.0       2.98105   1
222     221   238   239     9    180.0     0.29811   3
222     221   238   240     9    0.0       0.00000   0
223     221   238   239     9    0.0       0.00000   0
223     221   238   240     9    0.0       0.74526   1
223     221   238   240     9    0.0       0.74526   2
223     221   238   240     9    0.0       1.49053   3
221     223   226   227     9    0.0       0.00000   0
221     223   226   236     9    0.0       0.00000   0
224     223   226   227     9    0.0       0.00000   0
224     223   226   236     9    0.0       0.00000   0
225     223   226   227     9    0.0       0.00000   0
225     223   226   236     9    0.0       0.00000   0
223     226   227   228     9    180.0     13.50790  2
223     226   227   229     9    180.0     13.50790  2
236     226   227   228     9    180.0     13.50790  2
236     226   227   229     9    180.0     13.50790  2
223     226   236   234     9    180.0     13.50790  2
223     226   236   237     9    180.0     13.50790  2
227     226   236   234     9    180.0     13.50790  2
227     226   236   237     9    180.0     13.50790  2
226     227   229   230     9    180.0     13.50790  2
226     227   229   231     9    180.0     13.50790  2
228     227   229   230     9    180.0     13.50790  2
228     227   229   231     9    180.0     13.50790  2
227     229   231   232     9    180.0     13.50790  2
227     229   231   234     9    180.0     13.50790  2
230     229   231   232     9    180.0     13.50790  2
230     229   231   234     9    180.0     13.50790  2
229     231   232   233     9    180.0     8.57053   2
234     231   232   233     9    180.0     8.57053   2
229     231   234   235     9    180.0     13.50790  2
229     231   234   236     9    180.0     13.50790  2
232     231   234   235     9    180.0     13.50790  2
232     231   234   236     9    180.0     13.50790  2
231     234   236   226     9    180.0     13.50790  2
231     234   236   237     9    180.0     13.50790  2
235     234   236   226     9    180.0     13.50790  2
235     234   236   237     9    180.0     13.50790  2
221     238   240   241     9    180.0     9.31579   2
221     238   240   242     9    180.0     9.31579   2
239     238   240   241     9    0.0       7.45264   1
239     238   240   241     9    180.0     9.31579   2
239     238   240   242     9    180.0     9.31579   2
238     240   242   243     9    0.0       0.00000   0
238     240   242   244     9    0.0       1.49053   3
238     240   242   244     9    0.0       7.45264   1
238     240   242   244     9    0.0       7.45264   2
238     240   242   253     9    180.0     0.12670   1
238     240   242   253     9    0.0       1.24832   2
238     240   242   253     9    0.0       2.02712   3
238     240   242   253     9    0.0       0.29811   4
241     240   242   243     9    0.0       0.00000   0
241     240   242   244     9    0.0       0.00000   0
241     240   242   253     9    0.0       0.00000   0
240     242   244   245     9    0.0       0.57965   3
240     242   244   246     9    0.0       0.57965   3
240     242   244   247     9    0.0       0.37263   1
243     242   244   245     9    0.0       0.57965   3
243     242   244   246     9    0.0       0.57965   3
243     242   244   247     9    0.0       0.57965   3
253     242   244   245     9    0.0       0.57965   3
253     242   244   246     9    0.0       0.57965   3
253     242   244   247     9    0.0       1.11790   1
240     242   253   254     9    0.0       0.00000   0
240     242   253   255     9    360.0     0.73409   1
240     242   253   255     9    180.0     5.38453   2
240     242   253   255     9    180.0     1.78491   3
240     242   253   255     9    360.0     0.07117   4
240     242   253   255     9    360.0     0.01491   5
243     242   253   254     9    0.0       2.98105   1
243     242   253   254     9    180.0     0.29811   3
243     242   253   255     9    0.0       0.00000   0
244     242   253   254     9    0.0       0.00000   0
244     242   253   255     9    0.0       0.74526   1
244     242   253   255     9    0.0       0.74526   2
244     242   253   255     9    0.0       1.49053   3
242     244   247   248     9    0.0       0.57758   3
242     244   247   249     9    0.0       0.57758   3
242     244   247   250     9    0.0       0.57758   3
245     244   247   248     9    0.0       0.57758   3
245     244   247   249     9    0.0       0.57758   3
245     244   247   250     9    0.0       0.57758   3
246     244   247   248     9    0.0       0.57758   3
246     244   247   249     9    0.0       0.57758   3
246     244   247   250     9    0.0       0.57758   3
244     247   250   251     9    180.0     2.23579   2
244     247   250   252     9    180.0     2.23579   2
248     247   250   251     9    0.0       0.00000   0
248     247   250   252     9    0.0       0.00000   0
249     247   250   251     9    0.0       0.00000   0
249     247   250   252     9    0.0       0.00000   0
242     253   255   256     9    180.0     9.31579   2
242     253   255   265     9    180.0     9.31579   2
254     253   255   256     9    180.0     9.31579   2
254     253   255   265     9    180.0     9.31579   2
253     255   256   257     9    0.0       0.00000   0
253     255   256   258     9    0.0       0.00000   0
253     255   256   259     9    0.0       1.49053   3
253     255   256   259     9    0.0       7.45264   1
253     255   256   259     9    0.0       7.45264   2
265     255   256   257     9    0.0       0.00000   0
265     255   256   258     9    0.0       0.00000   0
265     255   256   259     9    0.0       0.00000   0
253     255   265   262     9    0.0       7.45264   1
253     255   265   262     9    0.0       7.45264   2
253     255   265   262     9    0.0       1.49053   3
253     255   265   266     9    0.0       0.00000   0
253     255   265   267     9    0.0       1.00611   2
253     255   265   267     9    0.0       1.56505   3
256     255   265   262     9    0.0       0.00000   0
256     255   265   266     9    0.0       0.00000   0
256     255   265   267     9    0.0       0.00000   0
255     256   259   260     9    0.0       0.57965   3
255     256   259   261     9    0.0       0.57965   3
255     256   259   262     9    0.0       0.57965   3
257     256   259   260     9    0.0       0.57965   3
257     256   259   261     9    0.0       0.57965   3
257     256   259   262     9    0.0       0.57965   3
258     256   259   260     9    0.0       0.57965   3
258     256   259   261     9    0.0       0.57965   3
258     256   259   262     9    0.0       0.57965   3
256     259   262   263     9    0.0       0.59621   3
256     259   262   264     9    0.0       0.59621   3
256     259   262   265     9    0.0       0.67074   3
256     259   262   265     9    180.0     0.74526   1
256     259   262   265     9    180.0     0.93158   2
260     259   262   263     9    0.0       0.55895   3
260     259   262   264     9    0.0       0.55895   3
260     259   262   265     9    0.0       0.59621   3
261     259   262   263     9    0.0       0.55895   3
261     259   262   264     9    0.0       0.55895   3
261     259   262   265     9    0.0       0.59621   3
259     262   265   255     9    0.0       0.57965   3
259     262   265   266     9    0.0       0.57965   3
259     262   265   267     9    0.0       0.57965   3
263     262   265   255     9    0.0       0.57965   3
263     262   265   266     9    0.0       0.57965   3
263     262   265   267     9    0.0       0.57965   3
264     262   265   255     9    0.0       0.57965   3
264     262   265   266     9    0.0       0.57965   3
264     262   265   267     9    0.0       0.57965   3
255     265   267   268     9    0.0       0.00000   0
255     265   267   269     9    180.0     1.67684   1
255     265   267   269     9    180.0     5.88758   2
255     265   267   269     9    180.0     2.04947   3
262     265   267   268     9    0.0       0.00000   0
262     265   267   269     9    0.0       0.74526   1
262     265   267   269     9    0.0       0.74526   2
262     265   267   269     9    0.0       1.49053   3
266     265   267   268     9    0.0       2.98105   1
266     265   267   268     9    180.0     0.29811   3
266     265   267   269     9    0.0       0.00000   0
265     267   269   270     9    180.0     9.31579   2
265     267   269   271     9    180.0     9.31579   2
268     267   269   270     9    0.0       7.45264   1
268     267   269   270     9    180.0     9.31579   2
268     267   269   271     9    180.0     9.31579   2
267     269   271   272     9    0.0       0.00000   0
267     269   271   273     9    0.0       1.49053   3
267     269   271   273     9    0.0       7.45264   1
267     269   271   273     9    0.0       7.45264   2
267     269   271   282     9    180.0     0.12670   1
267     269   271   282     9    0.0       1.24832   2
267     269   271   282     9    0.0       2.02712   3
267     269   271   282     9    0.0       0.29811   4
270     269   271   272     9    0.0       0.00000   0
270     269   271   273     9    0.0       0.00000   0
270     269   271   282     9    0.0       0.00000   0
269     271   273   274     9    0.0       0.57965   3
269     271   273   275     9    0.0       0.57965   3
269     271   273   276     9    0.0       0.37263   1
272     271   273   274     9    0.0       0.57965   3
272     271   273   275     9    0.0       0.57965   3
272     271   273   276     9    0.0       0.57965   3
282     271   273   274     9    0.0       0.57965   3
282     271   273   275     9    0.0       0.57965   3
282     271   273   276     9    0.0       1.11790   1
269     271   282   283     9    0.0       0.00000   0
269     271   282   284     9    360.0     0.73409   1
269     271   282   284     9    180.0     5.38453   2
269     271   282   284     9    180.0     1.78491   3
269     271   282   284     9    360.0     0.07117   4
269     271   282   284     9    360.0     0.01491   5
272     271   282   283     9    0.0       2.98105   1
272     271   282   283     9    180.0     0.29811   3
272     271   282   284     9    0.0       0.00000   0
273     271   282   283     9    0.0       0.00000   0
273     271   282   284     9    0.0       0.74526   1
273     271   282   284     9    0.0       0.74526   2
273     271   282   284     9    0.0       1.49053   3
271     273   276   277     9    0.0       0.57758   3
271     273   276   278     9    0.0       0.57758   3
271     273   276   279     9    0.0       0.57758   3
274     273   276   277     9    0.0       0.57758   3
274     273   276   278     9    0.0       0.57758   3
274     273   276   279     9    0.0       0.57758   3
275     273   276   277     9    0.0       0.57758   3
275     273   276   278     9    0.0       0.57758   3
275     273   276   279     9    0.0       0.57758   3
273     276   279   280     9    180.0     2.23579   2
273     276   279   281     9    180.0     2.23579   2
277     276   279   280     9    0.0       0.00000   0
277     276   279   281     9    0.0       0.00000   0
278     276   279   280     9    0.0       0.00000   0
278     276   279   281     9    0.0       0.00000   0
271     282   284   285     9    180.0     9.31579   2
271     282   284   286     9    180.0     9.31579   2
283     282   284   285     9    0.0       7.45264   1
283     282   284   285     9    180.0     9.31579   2
283     282   284   286     9    180.0     9.31579   2
282     284   286   287     9    0.0       0.00000   0
282     284   286   288     9    0.0       1.49053   3
282     284   286   288     9    0.0       7.45264   1
282     284   286   288     9    0.0       7.45264   2
282     284   286   292     9    180.0     0.12670   1
282     284   286   292     9    0.0       1.24832   2
282     284   286   292     9    0.0       2.02712   3
282     284   286   292     9    0.0       0.29811   4
285     284   286   287     9    0.0       0.00000   0
285     284   286   288     9    0.0       0.00000   0
285     284   286   292     9    0.0       0.00000   0
284     286   288   289     9    0.0       0.57965   3
284     286   288   290     9    0.0       0.57965   3
284     286   288   291     9    0.0       0.57965   3
287     286   288   289     9    0.0       0.57965   3
287     286   288   290     9    0.0       0.57965   3
287     286   288   291     9    0.0       0.57965   3
292     286   288   289     9    0.0       0.57965   3
292     286   288   290     9    0.0       0.57965   3
292     286   288   291     9    0.0       0.57965   3
284     286   292   293     9    0.0       0.00000   0
284     286   292   294     9    0.0       0.00000   0
287     286   292   293     9    0.0       0.00000   0
287     286   292   294     9    0.0       0.00000   0
288     286   292   293     9    0.0       0.00000   0
288     286   292   294     9    0.0       0.00000   0
5        15    13    14     4    180.0     39.12634  2
7        11    10    12     4    180.0     39.12634  2
13       17    15    16     4    180.0     4.09895   2
13       15    17    27     4    90.0      1.49053   2
15       17    27    29     4    90.0      0.21241   3
15       17    27    29     4    90.0      0.09316   4
15       17    27    29     4    90.0      -0.04097  5
15       17    27    29     4    160.888   2.42211   1
15       17    27    29     4    90.0      -0.95019  1
15       17    27    29     4    90.0      0.27947   2
17       29    27    28     4    180.0     39.12634  2
19       24    22    23     4    180.0     39.12634  2
22       25    24    26     4    180.0     3.72632   2
27       31    29    30     4    180.0     4.09895   2
27       29    31    42     4    90.0      1.49053   2
29       31    42    44     4    160.888   2.42211   1
29       31    42    44     4    90.0      -0.95019  1
29       31    42    44     4    90.0      0.27947   2
29       31    42    44     4    90.0      0.21241   3
29       31    42    44     4    90.0      0.09316   4
29       31    42    44     4    90.0      -0.04097  5
31       44    42    43     4    180.0     39.12634  2
36       40    39    41     4    180.0     39.12634  2
42       46    44    45     4    180.0     4.09895   2
42       44    46    52     4    90.0      1.49053   2
44       46    52    54     4    90.0      0.27947   2
44       46    52    54     4    90.0      0.09316   4
44       46    52    54     4    90.0      -0.04097  5
44       46    52    54     4    90.0      0.21241   3
44       46    52    54     4    160.888   2.42211   1
44       46    52    54     4    90.0      -0.95019  1
46       54    52    53     4    180.0     39.12634  2
52       56    54    55     4    180.0     4.09895   2
52       54    56    73     4    90.0      1.49053   2
54       56    73    75     4    90.0      -0.95019  1
54       56    73    75     4    90.0      0.27947   2
54       56    73    75     4    90.0      0.21241   3
54       56    73    75     4    90.0      0.09316   4
54       56    73    75     4    90.0      -0.04097  5
54       56    73    75     4    160.888   2.42211   1
56       75    73    74     4    180.0     39.12634  2
58       61    71    62     4    180.0     4.09895   2
61       64    62    63     4    180.0     4.09895   2
61       69    71    72     4    180.0     4.09895   2
62       66    64    65     4    180.0     4.09895   2
64       69    66    67     4    180.0     4.09895   2
66       71    69    70     4    180.0     4.09895   2
73       77    75    76     4    180.0     4.09895   2
73       75    77    88     4    90.0      1.49053   2
75       77    88    90     4    160.888   2.42211   1
75       77    88    90     4    90.0      -0.95019  1
75       77    88    90     4    90.0      0.27947   2
75       77    88    90     4    90.0      0.09316   4
75       77    88    90     4    90.0      -0.04097  5
75       77    88    90     4    90.0      0.21241   3
77       90    88    89     4    180.0     39.12634  2
82       86    85    87     4    180.0     39.12634  2
88       92    90    91     4    180.0     4.09895   2
88       90    92   105     4    90.0      1.49053   2
90       92   105   107     4    90.0      -0.95019  1
90       92   105   107     4    90.0      0.27947   2
90       92   105   107     4    90.0      0.21241   3
90       92   105   107     4    90.0      0.09316   4
90       92   105   107     4    90.0      -0.04097  5
90       92   105   107     4    160.888   2.42211   1
92      107   105   106     4    180.0     39.12634  2
105     108   107   117     4    180.0     3.72632   2
117     121   119   120     4    180.0     39.12634  2
119     123   121   122     4    180.0     4.09895   2
119     121   123   130     4    90.0      1.49053   2
121     123   130   132     4    90.0      0.09316   4
121     123   130   132     4    90.0      -0.04097  5
121     123   130   132     4    90.0      0.21241   3
121     123   130   132     4    160.888   2.42211   1
121     123   130   132     4    90.0      -0.95019  1
121     123   130   132     4    90.0      0.27947   2
123     132   130   131     4    180.0     39.12634  2
130     134   132   133     4    180.0     4.09895   2
130     132   134   145     4    90.0      1.49053   2
132     134   145   147     4    90.0      -0.95019  1
132     134   145   147     4    90.0      0.27947   2
132     134   145   147     4    90.0      0.21241   3
132     134   145   147     4    90.0      0.09316   4
132     134   145   147     4    90.0      -0.04097  5
132     134   145   147     4    160.888   2.42211   1
134     147   145   146     4    180.0     39.12634  2
139     143   142   144     4    180.0     39.12634  2
145     149   147   148     4    180.0     4.09895   2
145     147   149   160     4    90.0      1.49053   2
147     149   160   162     4    90.0      -0.95019  1
147     149   160   162     4    90.0      0.27947   2
147     149   160   162     4    90.0      0.21241   3
147     149   160   162     4    90.0      0.09316   4
147     149   160   162     4    90.0      -0.04097  5
147     149   160   162     4    160.888   2.42211   1
149     162   160   161     4    180.0     39.12634  2
154     158   157   159     4    180.0     39.12634  2
160     164   162   163     4    180.0     4.09895   2
164     169   167   168     4    180.0     39.12634  2
167     171   169   170     4    180.0     4.09895   2
167     169   171   188     4    90.0      1.49053   2
169     171   188   190     4    160.888   2.42211   1
169     171   188   190     4    90.0      -0.95019  1
169     171   188   190     4    90.0      0.27947   2
169     171   188   190     4    90.0      0.21241   3
169     171   188   190     4    90.0      0.09316   4
169     171   188   190     4    90.0      -0.04097  5
171     190   188   189     4    180.0     39.12634  2
173     176   186   177     4    180.0     4.09895   2
176     179   177   178     4    180.0     4.09895   2
176     184   186   187     4    180.0     4.09895   2
177     181   179   180     4    180.0     4.09895   2
179     184   181   182     4    180.0     4.09895   2
181     186   184   185     4    180.0     4.09895   2
188     192   190   191     4    180.0     4.09895   2
188     190   192   205     4    90.0      1.49053   2
190     192   205   207     4    90.0      -0.95019  1
190     192   205   207     4    160.888   2.42211   1
190     192   205   207     4    90.0      0.27947   2
190     192   205   207     4    90.0      0.21241   3
190     192   205   207     4    90.0      0.09316   4
190     192   205   207     4    90.0      -0.04097  5
192     207   205   206     4    180.0     39.12634  2
197     202   200   201     4    180.0     39.12634  2
200     203   202   204     4    180.0     3.72632   2
205     209   207   208     4    180.0     4.09895   2
205     207   209   217     4    90.0      1.49053   2
207     209   217   219     4    160.888   2.42211   1
207     209   217   219     4    90.0      0.21241   3
207     209   217   219     4    90.0      0.09316   4
207     209   217   219     4    90.0      -0.04097  5
207     209   217   219     4    90.0      0.27947   2
207     209   217   219     4    90.0      -0.95019  1
209     219   217   218     4    180.0     39.12634  2
211     215   214   216     4    180.0     39.12634  2
217     221   219   220     4    180.0     4.09895   2
217     219   221   238     4    90.0      1.49053   2
219     221   238   240     4    90.0      0.27947   2
219     221   238   240     4    160.888   2.42211   1
219     221   238   240     4    90.0      -0.95019  1
219     221   238   240     4    90.0      0.21241   3
219     221   238   240     4    90.0      0.09316   4
219     221   238   240     4    90.0      -0.04097  5
221     240   238   239     4    180.0     39.12634  2
223     226   236   227     4    180.0     4.09895   2
226     229   227   228     4    180.0     4.09895   2
226     234   236   237     4    180.0     4.09895   2
227     231   229   230     4    180.0     4.09895   2
229     234   231   232     4    180.0     4.09895   2
231     236   234   235     4    180.0     4.09895   2
238     242   240   241     4    180.0     4.09895   2
238     240   242   253     4    90.0      1.49053   2
240     242   253   255     4    90.0      0.27947   2
240     242   253   255     4    90.0      0.21241   3
240     242   253   255     4    90.0      0.09316   4
240     242   253   255     4    90.0      -0.04097  5
240     242   253   255     4    160.888   2.42211   1
240     242   253   255     4    90.0      -0.95019  1
242     255   253   254     4    180.0     39.12634  2
247     251   250   252     4    180.0     39.12634  2
253     256   255   265     4    180.0     3.72632   2
265     269   267   268     4    180.0     39.12634  2
267     271   269   270     4    180.0     4.09895   2
267     269   271   282     4    90.0      1.49053   2
269     271   282   284     4    160.888   2.42211   1
269     271   282   284     4    90.0      -0.95019  1
269     271   282   284     4    90.0      0.27947   2
269     271   282   284     4    90.0      0.21241   3
269     271   282   284     4    90.0      0.09316   4
269     271   282   284     4    90.0      -0.04097  5
271     284   282   283     4    180.0     39.12634  2
276     280   279   281     4    180.0     39.12634  2
282     286   284   285     4    180.0     4.09895   2
282     284   286   292     4    90.0      1.49053   2
286     293   292   294     4    180.0     39.12634  2

[ moleculetype ]
;name            nrexcl
 L47              3

[ atoms ]
     1        sc3      1    L47      C      1 -0.1614708     12.010
     2        shc      1    L47      H      2  0.0774164      1.008
     3        shc      1    L47     H1      3  0.0774164      1.008
     4        shc      1    L47     H2      4  0.0774164      1.008
     5         sc      1    L47     C1      5  0.6427691     12.010
     6         so      1    L47      O      6 -0.5276350     16.000
     7         sn      1    L47      N      7 -0.3605018     14.010
     8        sc3      1    L47     C2      8  0.0773852     12.010
     9        sh1      1    L47     H3      9  0.0634181      1.008
    10        sh1      1    L47     H4     10  0.0634181      1.008
    11        sc3      1    L47     C3     11 -0.0378433     12.010
    12        shc      1    L47     H5     12  0.0742709      1.008
    13        shc      1    L47     H6     13  0.0742709      1.008
    14        sca      1    L47     C4     14 -0.1578847     12.010
    15        sca      1    L47     C5     15  0.1638301     12.010
    16        sca      1    L47     C6     16 -0.1745886     12.010
    17        sha      1    L47     H7     17  0.1802509      1.008
    18        sca      1    L47     C7     18  0.0217056     12.010
    19        sha      1    L47     H8     19  0.1349523      1.008
    20        sca      1    L47     C8     20 -0.4704454     12.010
    21        sca      1    L47     C9     21  0.0358614     12.010
    22        sha      1    L47     H9     22  0.1519393      1.008
    23        ssy      1    L47      S     23  1.4374784     32.060
    24         so      1    L47     O1     24 -0.6302176     16.000
    25         so      1    L47     O2     25 -0.6302176     16.000
    26        sn3      1    L47     N1     26 -0.7507309     14.010
    27        sc3      1    L47    C10     27  0.1847808     12.010
    28        sh1      1    L47    H10     28  0.0841800      1.008
    29        sh1      1    L47    H11     29  0.0841800      1.008
    30        sc3      1    L47    C11     30 -0.1324986     12.010
    31        shc      1    L47    H12     31  0.0888986      1.008
    32        shc      1    L47    H13     32  0.0888986      1.008
    33        sc3      1    L47    C12     33  0.1073956     12.010
    34        shx      1    L47    H14     34  0.0940891      1.008
    35        shx      1    L47    H15     35  0.0940891      1.008
    36        sn4      1    L47     N2     36 -0.7191162     14.010
    37        shn      1    L47    H16     37  0.4447762      1.008
    38        shn      1    L47    H17     38  0.4447762      1.008
    39        sc3      1    L47    C13     39  0.0668155     12.010
    40        shx      1    L47    H18     40  0.0973921      1.008
    41        shx      1    L47    H19     41  0.0973921      1.008
    42        sc3      1    L47    C14     42  0.1989366     12.010
    43        sh1      1    L47    H20     43  0.0832363      1.008
    44        sh1      1    L47    H21     44  0.0832363      1.008

[ bonds ]
     1      2   1    1.0969e-01    2.7665e+05 ;      C - H     
     1      3   1    1.0969e-01    2.7665e+05 ;      C - H1    
     1      4   1    1.0969e-01    2.7665e+05 ;      C - H2    
     1      5   1    1.5241e-01    2.6192e+05 ;      C - C1    
     5      6   1    1.2183e-01    5.3363e+05 ;     C1 - O     
     5      7   1    1.3789e-01    3.5782e+05 ;     C1 - N     
     7      8   1    1.4619e-01    2.7506e+05 ;      N - C2    
     7     15   1    1.4121e-01    3.2150e+05 ;      N - C5    
     8      9   1    1.0969e-01    2.7665e+05 ;     C2 - H3    
     8     10   1    1.0969e-01    2.7665e+05 ;     C2 - H4    
     8     11   1    1.5375e-01    2.5179e+05 ;     C2 - C3    
    11     12   1    1.0969e-01    2.7665e+05 ;     C3 - H5    
    11     13   1    1.0969e-01    2.7665e+05 ;     C3 - H6    
    11     14   1    1.5156e-01    2.6861e+05 ;     C3 - C4    
    14     15   1    1.3984e-01    3.8585e+05 ;     C4 - C5    
    14     21   1    1.3984e-01    3.8585e+05 ;     C4 - C9    
    15     16   1    1.3984e-01    3.8585e+05 ;     C5 - C6    
    16     17   1    1.0860e-01    2.8937e+05 ;     C6 - H7    
    16     18   1    1.3984e-01    3.8585e+05 ;     C6 - C7    
    18     19   1    1.0860e-01    2.8937e+05 ;     C7 - H8    
    18     20   1    1.3984e-01    3.8585e+05 ;     C7 - C8    
    20     21   1    1.3984e-01    3.8585e+05 ;     C8 - C9    
    20     23   1    1.7909e-01    2.0368e+05 ;     C8 - S     
    21     22   1    1.0860e-01    2.8937e+05 ;     C9 - H9    
    23     24   1    1.4660e-01    4.1254e+05 ;      S - O1    
    23     25   1    1.4660e-01    4.1254e+05 ;      S - O2    
    23     26   1    1.6962e-01    2.4886e+05 ;      S - N1    
    26     27   1    1.4647e-01    2.7271e+05 ;     N1 - C10   
    26     42   1    1.4647e-01    2.7271e+05 ;     N1 - C14   
    27     28   1    1.0969e-01    2.7665e+05 ;    C10 - H10   
    27     29   1    1.0969e-01    2.7665e+05 ;    C10 - H11   
    27     30   1    1.5375e-01    2.5179e+05 ;    C10 - C11   
    30     31   1    1.0969e-01    2.7665e+05 ;    C11 - H12   
    30     32   1    1.0969e-01    2.7665e+05 ;    C11 - H13   
    30     33   1    1.5375e-01    2.5179e+05 ;    C11 - C12   
    33     34   1    1.0910e-01    2.8342e+05 ;    C12 - H14   
    33     35   1    1.0910e-01    2.8342e+05 ;    C12 - H15   
    33     36   1    1.5110e-01    2.3707e+05 ;    C12 - N2    
    36     37   1    1.0304e-01    3.1229e+05 ;     N2 - H16   
    36     38   1    1.0304e-01    3.1229e+05 ;     N2 - H17   
    36     39   1    1.5110e-01    2.3707e+05 ;     N2 - C13   
    39     40   1    1.0910e-01    2.8342e+05 ;    C13 - H18   
    39     41   1    1.0910e-01    2.8342e+05 ;    C13 - H19   
    39     42   1    1.5375e-01    2.5179e+05 ;    C13 - C14   
    42     43   1    1.0969e-01    2.7665e+05 ;    C14 - H20   
    42     44   1    1.0969e-01    2.7665e+05 ;    C14 - H21   


[ pairs ]
     1      8      1 ;      C - C2    
     1     15      1 ;      C - C5    
     2      6      1 ;      H - O     
     2      7      1 ;      H - N     
     3      6      1 ;     H1 - O     
     3      7      1 ;     H1 - N     
     4      6      1 ;     H2 - O     
     4      7      1 ;     H2 - N     
     5      9      1 ;     C1 - H3    
     5     10      1 ;     C1 - H4    
     5     11      1 ;     C1 - C3    
     5     14      1 ;     C1 - C4    
     5     16      1 ;     C1 - C6    
     6      8      1 ;      O - C2    
     6     15      1 ;      O - C5    
     7     12      1 ;      N - H5    
     7     13      1 ;      N - H6    
     7     17      1 ;      N - H7    
     7     18      1 ;      N - C7    
     7     21      1 ;      N - C9    
     8     16      1 ;     C2 - C6    
     8     21      1 ;     C2 - C9    
     9     12      1 ;     H3 - H5    
     9     13      1 ;     H3 - H6    
     9     14      1 ;     H3 - C4    
     9     15      1 ;     H3 - C5    
    10     12      1 ;     H4 - H5    
    10     13      1 ;     H4 - H6    
    10     14      1 ;     H4 - C4    
    10     15      1 ;     H4 - C5    
    11     16      1 ;     C3 - C6    
    11     20      1 ;     C3 - C8    
    11     22      1 ;     C3 - H9    
    12     15      1 ;     H5 - C5    
    12     21      1 ;     H5 - C9    
    13     15      1 ;     H6 - C5    
    13     21      1 ;     H6 - C9    
    14     17      1 ;     C4 - H7    
    14     18      1 ;     C4 - C7    
    14     23      1 ;     C4 - S     
    15     19      1 ;     C5 - H8    
    15     20      1 ;     C5 - C8    
    15     22      1 ;     C5 - H9    
    16     21      1 ;     C6 - C9    
    16     23      1 ;     C6 - S     
    17     19      1 ;     H7 - H8    
    17     20      1 ;     H7 - C8    
    18     22      1 ;     C7 - H9    
    18     24      1 ;     C7 - O1    
    18     25      1 ;     C7 - O2    
    18     26      1 ;     C7 - N1    
    19     21      1 ;     H8 - C9    
    19     23      1 ;     H8 - S     
    20     27      1 ;     C8 - C10   
    20     42      1 ;     C8 - C14   
    21     24      1 ;     C9 - O1    
    21     25      1 ;     C9 - O2    
    21     26      1 ;     C9 - N1    
    22     23      1 ;     H9 - S     
    23     28      1 ;      S - H10   
    23     29      1 ;      S - H11   
    23     30      1 ;      S - C11   
    23     39      1 ;      S - C13   
    23     43      1 ;      S - H20   
    23     44      1 ;      S - H21   
    24     27      1 ;     O1 - C10   
    24     42      1 ;     O1 - C14   
    25     27      1 ;     O2 - C10   
    25     42      1 ;     O2 - C14   
    26     31      1 ;     N1 - H12   
    26     32      1 ;     N1 - H13   
    26     33      1 ;     N1 - C12   
    26     36      1 ;     N1 - N2    
    26     40      1 ;     N1 - H18   
    26     41      1 ;     N1 - H19   
    27     34      1 ;    C10 - H14   
    27     35      1 ;    C10 - H15   
    27     36      1 ;    C10 - N2    
    27     39      1 ;    C10 - C13   
    27     43      1 ;    C10 - H20   
    27     44      1 ;    C10 - H21   
    28     31      1 ;    H10 - H12   
    28     32      1 ;    H10 - H13   
    28     33      1 ;    H10 - C12   
    28     42      1 ;    H10 - C14   
    29     31      1 ;    H11 - H12   
    29     32      1 ;    H11 - H13   
    29     33      1 ;    H11 - C12   
    29     42      1 ;    H11 - C14   
    30     37      1 ;    C11 - H16   
    30     38      1 ;    C11 - H17   
    30     39      1 ;    C11 - C13   
    30     42      1 ;    C11 - C14   
    31     34      1 ;    H12 - H14   
    31     35      1 ;    H12 - H15   
    31     36      1 ;    H12 - N2    
    32     34      1 ;    H13 - H14   
    32     35      1 ;    H13 - H15   
    32     36      1 ;    H13 - N2    
    33     40      1 ;    C12 - H18   
    33     41      1 ;    C12 - H19   
    33     42      1 ;    C12 - C14   
    34     37      1 ;    H14 - H16   
    34     38      1 ;    H14 - H17   
    34     39      1 ;    H14 - C13   
    35     37      1 ;    H15 - H16   
    35     38      1 ;    H15 - H17   
    35     39      1 ;    H15 - C13   
    36     43      1 ;     N2 - H20   
    36     44      1 ;     N2 - H21   
    37     40      1 ;    H16 - H18   
    37     41      1 ;    H16 - H19   
    37     42      1 ;    H16 - C14   
    38     40      1 ;    H17 - H18   
    38     41      1 ;    H17 - H19   
    38     42      1 ;    H17 - C14   
    40     43      1 ;    H18 - H20   
    40     44      1 ;    H18 - H21   
    41     43      1 ;    H19 - H20   
    41     44      1 ;    H19 - H21   


[ angles ]
     1      5      6      1    1.2320e+02    5.6400e+02 ;      C - C1     - O     
     1      5      7      1    1.1518e+02    5.5898e+02 ;      C - C1     - N     
     2      1      3      1    1.0758e+02    3.2970e+02 ;      H - C      - H1    
     2      1      4      1    1.0758e+02    3.2970e+02 ;      H - C      - H2    
     2      1      5      1    1.0877e+02    3.9246e+02 ;      H - C      - C1    
     3      1      4      1    1.0758e+02    3.2970e+02 ;     H1 - C      - H2    
     3      1      5      1    1.0877e+02    3.9246e+02 ;     H1 - C      - C1    
     4      1      5      1    1.0877e+02    3.9246e+02 ;     H2 - C      - C1    
     5      7      8      1    1.2069e+02    5.3053e+02 ;     C1 - N      - C2    
     5      7     15      1    1.2371e+02    5.3388e+02 ;     C1 - N      - C5    
     6      5      7      1    1.2305e+02    6.2091e+02 ;      O - C1     - N     
     7      8      9      1    1.0888e+02    4.1673e+02 ;      N - C2     - H3    
     7      8     10      1    1.0888e+02    4.1673e+02 ;      N - C2     - H4    
     7      8     11      1    1.1161e+02    5.5145e+02 ;      N - C2     - C3    
     7     15     14      1    1.2019e+02    5.6819e+02 ;      N - C5     - C4    
     7     15     16      1    1.2019e+02    5.6819e+02 ;      N - C5     - C6    
     8      7     15      1    1.1983e+02    5.2718e+02 ;     C2 - N      - C5    
     8     11     12      1    1.0980e+02    3.8744e+02 ;     C2 - C3     - H5    
     8     11     13      1    1.0980e+02    3.8744e+02 ;     C2 - C3     - H6    
     8     11     14      1    1.1207e+02    5.2802e+02 ;     C2 - C3     - C4    
     9      8     10      1    1.0846e+02    3.2803e+02 ;     H3 - C2     - H4    
     9      8     11      1    1.0956e+02    3.8828e+02 ;     H3 - C2     - C3    
    10      8     11      1    1.0956e+02    3.8828e+02 ;     H4 - C2     - C3    
    11     14     15      1    1.2077e+02    5.3137e+02 ;     C3 - C4     - C5    
    11     14     21      1    1.2077e+02    5.3137e+02 ;     C3 - C4     - C9    
    12     11     13      1    1.0758e+02    3.2970e+02 ;     H5 - C3     - H6    
    12     11     14      1    1.1047e+02    3.9162e+02 ;     H5 - C3     - C4    
    13     11     14      1    1.1047e+02    3.9162e+02 ;     H6 - C3     - C4    
    14     15     16      1    1.2002e+02    5.5731e+02 ;     C4 - C5     - C6    
    14     21     20      1    1.2002e+02    5.5731e+02 ;     C4 - C9     - C8    
    14     21     22      1    1.1988e+02    4.0334e+02 ;     C4 - C9     - H9    
    15     14     21      1    1.2002e+02    5.5731e+02 ;     C5 - C4     - C9    
    15     16     17      1    1.1988e+02    4.0334e+02 ;     C5 - C6     - H7    
    15     16     18      1    1.2002e+02    5.5731e+02 ;     C5 - C6     - C7    
    16     18     19      1    1.1988e+02    4.0334e+02 ;     C6 - C7     - H8    
    16     18     20      1    1.2002e+02    5.5731e+02 ;     C6 - C7     - C8    
    17     16     18      1    1.1988e+02    4.0334e+02 ;     H7 - C6     - C7    
    18     20     21      1    1.2002e+02    5.5731e+02 ;     C7 - C8     - C9    
    18     20     23      1    1.1942e+02    5.1463e+02 ;     C7 - C8     - S     
    19     18     20      1    1.1988e+02    4.0334e+02 ;     H8 - C7     - C8    
    20     21     22      1    1.1988e+02    4.0334e+02 ;     C8 - C9     - H9    
    20     23     24      1    1.0835e+02    5.5061e+02 ;     C8 - S      - O1    
    20     23     25      1    1.0835e+02    5.5061e+02 ;     C8 - S      - O2    
    20     23     26      1    1.0244e+02    5.3555e+02 ;     C8 - S      - N1    
    21     20     23      1    1.1942e+02    5.1463e+02 ;     C9 - C8     - S     
    23     26     27      1    1.1525e+02    5.2300e+02 ;      S - N1     - C10   
    23     26     42      1    1.1525e+02    5.2300e+02 ;      S - N1     - C14   
    24     23     25      1    1.2141e+02    6.0668e+02 ;     O1 - S      - O2    
    24     23     26      1    1.0713e+02    5.8911e+02 ;     O1 - S      - N1    
    25     23     26      1    1.0713e+02    5.8911e+02 ;     O2 - S      - N1    
    26     27     28      1    1.0988e+02    4.1422e+02 ;     N1 - C10    - H10   
    26     27     29      1    1.0988e+02    4.1422e+02 ;     N1 - C10    - H11   
    26     27     30      1    1.1104e+02    5.5229e+02 ;     N1 - C10    - C11   
    26     42     39      1    1.1104e+02    5.5229e+02 ;     N1 - C14    - C13   
    26     42     43      1    1.0988e+02    4.1422e+02 ;     N1 - C14    - H20   
    26     42     44      1    1.0988e+02    4.1422e+02 ;     N1 - C14    - H21   
    27     26     42      1    1.1235e+02    5.3388e+02 ;    C10 - N1     - C14   
    27     30     31      1    1.0980e+02    3.8744e+02 ;    C10 - C11    - H12   
    27     30     32      1    1.0980e+02    3.8744e+02 ;    C10 - C11    - H13   
    27     30     33      1    1.1151e+02    5.2635e+02 ;    C10 - C11    - C12   
    28     27     29      1    1.0846e+02    3.2803e+02 ;    H10 - C10    - H11   
    28     27     30      1    1.0956e+02    3.8828e+02 ;    H10 - C10    - C11   
    29     27     30      1    1.0956e+02    3.8828e+02 ;    H11 - C10    - C11   
    30     33     34      1    1.1056e+02    3.8660e+02 ;    C11 - C12    - H14   
    30     33     35      1    1.1056e+02    3.8660e+02 ;    C11 - C12    - H15   
    30     33     36      1    1.1421e+02    5.3723e+02 ;    C11 - C12    - N2    
    31     30     32      1    1.0758e+02    3.2970e+02 ;    H12 - C11    - H13   
    31     30     33      1    1.0980e+02    3.8744e+02 ;    H12 - C11    - C12   
    32     30     33      1    1.0980e+02    3.8744e+02 ;    H13 - C11    - C12   
    33     36     37      1    1.1011e+02    3.8409e+02 ;    C12 - N2     - H16   
    33     36     38      1    1.1011e+02    3.8409e+02 ;    C12 - N2     - H17   
    33     36     39      1    1.0966e+02    5.2384e+02 ;    C12 - N2     - C13   
    34     33     35      1    1.0975e+02    3.2803e+02 ;    H14 - C12    - H15   
    34     33     36      1    1.0801e+02    4.0668e+02 ;    H14 - C12    - N2    
    35     33     36      1    1.0801e+02    4.0668e+02 ;    H15 - C12    - N2    
    36     39     40      1    1.0801e+02    4.0668e+02 ;     N2 - C13    - H18   
    36     39     41      1    1.0801e+02    4.0668e+02 ;     N2 - C13    - H19   
    36     39     42      1    1.1421e+02    5.3723e+02 ;     N2 - C13    - C14   
    37     36     38      1    1.0830e+02    3.3974e+02 ;    H16 - N2     - H17   
    37     36     39      1    1.1011e+02    3.8409e+02 ;    H16 - N2     - C13   
    38     36     39      1    1.1011e+02    3.8409e+02 ;    H17 - N2     - C13   
    39     42     43      1    1.0956e+02    3.8828e+02 ;    C13 - C14    - H20   
    39     42     44      1    1.0956e+02    3.8828e+02 ;    C13 - C14    - H21   
    40     39     41      1    1.0975e+02    3.2803e+02 ;    H18 - C13    - H19   
    40     39     42      1    1.1056e+02    3.8660e+02 ;    H18 - C13    - C14   
    41     39     42      1    1.1056e+02    3.8660e+02 ;    H19 - C13    - C14   
    43     42     44      1    1.0846e+02    3.2803e+02 ;    H20 - C14    - H21   


[ dihedrals ]
1         5     7     8     9    0.00      0.00000   0
1         5     7     8     9    180.00    5.58948   1
1         5     7    15     9    180.00    9.31579   2
2         1     5     6     9    0.00      0.00000   0
2         1     5     6     9    0.00      2.98105   1
2         1     5     6     9    180.00    0.29811   3
2         1     5     7     9    180.00    0.00000   2
3         1     5     6     9    0.00      0.00000   0
3         1     5     6     9    0.00      2.98105   1
3         1     5     6     9    180.00    0.29811   3
3         1     5     7     9    180.00    0.00000   2
4         1     5     6     9    0.00      0.00000   0
4         1     5     6     9    0.00      2.98105   1
4         1     5     6     9    180.00    0.29811   3
4         1     5     7     9    180.00    0.00000   2
5         7     8     9     9    0.00      0.00000   0
5         7     8    10     9    0.00      0.00000   0
5         7     8    11     9    0.00      0.00000   0
5         7     8    11     9    0.00      1.97495   1
5         7     8    11     9    180.00    0.55895   3
5         7     8    11     9    180.00    1.86316   4
5         7    15    14     9    180.00    1.67684   2
5         7    15    16     9    180.00    1.67684   2
6         5     7     8     9    180.00    9.31579   2
6         5     7    15     9    180.00    9.31579   2
7         8    11    12     9    0.00      0.57965   3
7         8    11    13     9    0.00      0.57965   3
7         8    11    14     9    0.00      0.57965   3
7        15    14    11     9    180.00    13.50790  2
7        15    14    21     9    180.00    13.50790  2
7        15    16    17     9    180.00    13.50790  2
7        15    16    18     9    180.00    13.50790  2
8         7    15    14     9    180.00    1.67684   2
8         7    15    16     9    180.00    1.67684   2
8        11    14    15     9    0.00      0.00000   0
8        11    14    21     9    0.00      0.00000   0
9         8     7    15     9    0.00      0.00000   0
9         8    11    12     9    0.00      0.57965   3
9         8    11    13     9    0.00      0.57965   3
9         8    11    14     9    0.00      0.57965   3
10        8     7    15     9    0.00      0.00000   0
10        8    11    12     9    0.00      0.57965   3
10        8    11    13     9    0.00      0.57965   3
10        8    11    14     9    0.00      0.57965   3
11        8     7    15     9    0.00      0.00000   0
11       14    15    16     9    180.00    13.50790  2
11       14    21    20     9    180.00    13.50790  2
11       14    21    22     9    180.00    13.50790  2
12       11    14    15     9    0.00      0.00000   0
12       11    14    21     9    0.00      0.00000   0
13       11    14    15     9    0.00      0.00000   0
13       11    14    21     9    0.00      0.00000   0
14       15    16    17     9    180.00    13.50790  2
14       15    16    18     9    180.00    13.50790  2
14       21    20    18     9    180.00    13.50790  2
14       21    20    23     9    180.00    13.50790  2
15       14    21    20     9    180.00    13.50790  2
15       14    21    22     9    180.00    13.50790  2
15       16    18    19     9    180.00    13.50790  2
15       16    18    20     9    180.00    13.50790  2
16       15    14    21     9    180.00    13.50790  2
16       18    20    21     9    180.00    13.50790  2
16       18    20    23     9    180.00    13.50790  2
17       16    18    19     9    180.00    13.50790  2
17       16    18    20     9    180.00    13.50790  2
18       20    21    22     9    180.00    13.50790  2
18       20    23    24     9    180.00    4.84421   2
18       20    23    25     9    180.00    4.84421   2
18       20    23    26     9    180.00    4.84421   2
19       18    20    21     9    180.00    13.50790  2
19       18    20    23     9    180.00    13.50790  2
20       23    26    27     9    0.00      11.67580  2
20       23    26    42     9    0.00      11.67580  2
21       20    23    24     9    180.00    4.84421   2
21       20    23    25     9    180.00    4.84421   2
21       20    23    26     9    180.00    4.84421   2
22       21    20    23     9    180.00    13.50790  2
23       26    27    28     9    0.00      1.11790   3
23       26    27    29     9    0.00      1.11790   3
23       26    27    30     9    0.00      1.11790   3
23       26    42    39     9    0.00      1.11790   3
23       26    42    43     9    0.00      1.11790   3
23       26    42    44     9    0.00      1.11790   3
24       23    26    27     9    0.00      11.67580  2
24       23    26    42     9    0.00      11.67580  2
25       23    26    27     9    0.00      11.67580  2
25       23    26    42     9    0.00      11.67580  2
26       27    30    31     9    0.00      0.57965   3
26       27    30    32     9    0.00      0.57965   3
26       27    30    33     9    0.00      0.57965   3
26       42    39    36     9    0.00      0.57965   3
26       42    39    40     9    0.00      0.57965   3
26       42    39    41     9    0.00      0.57965   3
27       26    42    39     9    0.00      1.11790   3
27       26    42    39     9    180.00    1.78863   2
27       26    42    43     9    0.00      1.11790   3
27       26    42    44     9    0.00      1.11790   3
27       30    33    34     9    0.00      0.57965   3
27       30    33    35     9    0.00      0.57965   3
27       30    33    36     9    0.00      0.57965   3
28       27    26    42     9    0.00      1.11790   3
28       27    30    31     9    0.00      0.57965   3
28       27    30    32     9    0.00      0.57965   3
28       27    30    33     9    0.00      0.57965   3
29       27    26    42     9    0.00      1.11790   3
29       27    30    31     9    0.00      0.57965   3
29       27    30    32     9    0.00      0.57965   3
29       27    30    33     9    0.00      0.57965   3
30       27    26    42     9    0.00      1.11790   3
30       27    26    42     9    180.00    1.78863   2
30       33    36    37     9    0.00      0.57965   3
30       33    36    38     9    0.00      0.57965   3
30       33    36    39     9    0.00      0.57965   3
31       30    33    34     9    0.00      0.57965   3
31       30    33    35     9    0.00      0.57965   3
31       30    33    36     9    0.00      0.57965   3
32       30    33    34     9    0.00      0.57965   3
32       30    33    35     9    0.00      0.57965   3
32       30    33    36     9    0.00      0.57965   3
33       36    39    40     9    0.00      0.57965   3
33       36    39    41     9    0.00      0.57965   3
33       36    39    42     9    0.00      0.57965   3
34       33    36    37     9    0.00      0.57965   3
34       33    36    38     9    0.00      0.57965   3
34       33    36    39     9    0.00      0.57965   3
35       33    36    37     9    0.00      0.57965   3
35       33    36    38     9    0.00      0.57965   3
35       33    36    39     9    0.00      0.57965   3
36       39    42    43     9    0.00      0.57965   3
36       39    42    44     9    0.00      0.57965   3
37       36    39    40     9    0.00      0.57965   3
37       36    39    41     9    0.00      0.57965   3
37       36    39    42     9    0.00      0.57965   3
38       36    39    40     9    0.00      0.57965   3
38       36    39    41     9    0.00      0.57965   3
38       36    39    42     9    0.00      0.57965   3
40       39    42    43     9    0.00      0.57965   3
40       39    42    44     9    0.00      0.57965   3
41       39    42    43     9    0.00      0.57965   3
41       39    42    44     9    0.00      0.57965   3
1         7     5     6     4    180.00    39.12634  2
5         8     7    15     4    180.00    4.09895   2
14       16    15     7     4    180.00    4.09895   2
14       20    21    22     4    180.00    4.09895   2
15       18    16    17     4    180.00    4.09895   2
15       21    14    11     4    180.00    4.09895   2
16       20    18    19     4    180.00    4.09895   2
18       21    20    23     4    180.00    4.09895   2

[ moleculetype ]
; molname	nrexcl
SOL		1

[ atoms ]
1       OW_tip4pd    	1	SOL	 OW		1	0        16.00000
2	HW       	1	SOL	HW2		1	0.5900 	  1.00800
3	HW	        1	SOL	HW3		1	0.5900 	  1.00800
4	MW		1	SOL	MW4		1      -1.1800    0.00000


[ settles ]
1	1	0.09572	0.15139


[ virtual_sites3 ]
4	1	2	3	1	0.131937768	0.131937768


[ exclusions ]
1	2	3	4
2	1	3	4
3	1	2	4
4	1	2	3




[ moleculetype ]
; molname       nrexcl
IB+             1       ; big positive ion

[ atoms ]
   1    IB                  1       IB+            IB      1    1.00000



[ moleculetype ]
; molname       nrexcl
CA              1

[ atoms ]
   1    C0                  1       CA             CA      1    2.00000



[ moleculetype ]
; molname       nrexcl
CL              1

[ atoms ]
   1    Cl                  1       CL             CL      1   -1.00000



[ moleculetype ]
; molname       nrexcl
NA              1

[ atoms ]
   1    Na                  1       NA             NA      1    1.00000



[ moleculetype ]
; molname       nrexcl
MG              1

[ atoms ]
   1    MG                  1       MG             MG      1    2.00000



[ moleculetype ]
; molname       nrexcl
K               1

[ atoms ]
   1    K                   1       K              K       1    1.00000



[ moleculetype ]
; molname       nrexcl
RB              1

[ atoms ]
   1    Rb                  1       RB             RB      1    1.00000



[ moleculetype ]
; molname       nrexcl
CS              1

[ atoms ]
   1    Cs                  1       CS             CS      1    1.00000



[ moleculetype ]
; molname       nrexcl
LI              1

[ atoms ]
   1    Li                  1       LI             LI      1    1.00000



[ moleculetype ]
; molname       nrexcl
ZN              1

[ atoms ]
   1    Zn                  1       ZN             ZN      1    2.00000


 [ system ] 
; Name
A-SYNC WITH LIG-47 in water

 [ molecules ] 
; Compound        #mols
Protein_chain_A     1
L47		    1
SOL         8739
NA               7

