;
;   File HxD_gromacs.top  was generated
;   By user: f006nbr (541224)
;   On host: discovery7.hpcc.dartmouth.edu
;   At date: Thu. August  4 16:24:19 2022
;
;   This is a standalone topology file
;
;   Created by:
;   ParmEd:       , VERSION 3.4.3
;   Executable:   
;   Library dir:  /dartfs-hpc/admin/opt/common/GROMACS/share/gromacs/top
;   Command line:
;     
;
; Include a99sb-disp topology
#include "../topology/a99SBdisp.ff/forcefield.itp"


[ atomtypes ]
; name    at.num    mass    charge ptype  sigma      epsilon
c3             6  12.010000  0.00000000  A     0.33977095      0.4510352
oh             8  16.000000  0.00000000  A     0.32428713       0.389112
h1             1   1.008000  0.00000000  A     0.24219973      0.0870272
hc             1   1.008000  0.00000000  A      0.2600177      0.0870272
ho             1   1.008000  0.00000000  A    0.053792465      0.0196648

#include "../topology/fus.itp"

[ moleculetype ]
; Name            nrexcl
HxD          3

[ atoms ]
;   nr       type  resnr residue  atom   cgnr    charge       mass  typeB    chargeB      massB
; residue    1 HxD rtp HxD q 0.0
    1         c3      1    HxD      C      1 0.15675000  12.010000   ; qtot 0.156750
    2         c3      1    HxD     C1      2 -0.08215000  12.010000   ; qtot 0.074600
    3         oh      1    HxD      O      3 -0.67640000  16.000000   ; qtot -0.601800
    4         h1      1    HxD      H      4 0.02010000   1.008000   ; qtot -0.581700
    5         h1      1    HxD     H1      5 0.02010000   1.008000   ; qtot -0.561600
    6         hc      1    HxD     H2      6 0.05332500   1.008000   ; qtot -0.508250
    7         hc      1    HxD     H3      7 0.05332500   1.008000   ; qtot -0.454900
    8         c3      1    HxD     C2      8 -0.07815000  12.010000   ; qtot -0.533050
    9         hc      1    HxD     H4      9 0.04307500   1.008000   ; qtot -0.489925
   10         c3      1    HxD     C3     10 -0.07815000  12.010000   ; qtot -0.568075
   11         hc      1    HxD     H5     11 0.04307500   1.008000   ; qtot -0.524950
   12         c3      1    HxD     C4     12 -0.08215000  12.010000   ; qtot -0.607100
   13         hc      1    HxD     H6     13 0.04307500   1.008000   ; qtot -0.563975
   14         hc      1    HxD     H7     14 0.04307500   1.008000   ; qtot -0.520850
   15         hc      1    HxD     H8     15 0.05332500   1.008000   ; qtot -0.467500
   16         c3      1    HxD     C5     16 0.15672500  12.010000   ; qtot -0.310750
   17         hc      1    HxD     H9     17 0.05335000   1.008000   ; qtot -0.257400
   18         h1      1    HxD    H10     18 0.02010000   1.008000   ; qtot -0.237300
   19         h1      1    HxD    H11     19 0.02010000   1.008000   ; qtot -0.217200
   20         oh      1    HxD     O1     20 -0.67640000  16.000000   ; qtot -0.893600
   21         ho      1    HxD    H12     21 0.44695000   1.008000   ; qtot -0.446650
   22         ho      1    HxD    H13     22 0.44695000   1.008000   ; qtot 0.000300

[ bonds ]
;    ai     aj funct         c0         c1         c2         c3
      1      2     1   0.15380 194556.000000
      1      3     1   0.14230 245517.120000
      2      8     1   0.15380 194556.000000
      8     10     1   0.15380 194556.000000
     10     12     1   0.15380 194556.000000
     12     16     1   0.15380 194556.000000
     16     20     1   0.14230 245517.120000
      1      4     1   0.10970 314553.120000
      1      5     1   0.10970 314553.120000
      2      6     1   0.10970 314553.120000
      2      7     1   0.10970 314553.120000
      3     21     1   0.09730 471536.800000
      8      9     1   0.10970 314553.120000
      8     11     1   0.10970 314553.120000
     10     13     1   0.10970 314553.120000
     10     14     1   0.10970 314553.120000
     12     15     1   0.10970 314553.120000
     12     17     1   0.10970 314553.120000
     16     18     1   0.10970 314553.120000
     16     19     1   0.10970 314553.120000
     20     22     1   0.09730 471536.800000

[ pairs ]
;    ai     aj funct         c0         c1         c2         c3
      1     10     1
      2     12     1
      3      8     1
      8     16     1
     10     20     1
      1      9     1
      1     11     1
      2     21     1
      2     13     1
      2     14     1
      3      6     1
      3      7     1
      4      6     1
      4      7     1
      4      8     1
      4     21     1
      5      6     1
      5      7     1
      5      8     1
      5     21     1
      6      9     1
      6     10     1
      6     11     1
      7      9     1
      7     10     1
      7     11     1
      8     15     1
      8     17     1
      9     12     1
      9     13     1
      9     14     1
     10     18     1
     10     19     1
     11     12     1
     11     13     1
     11     14     1
     12     22     1
     13     15     1
     13     16     1
     13     17     1
     14     15     1
     14     16     1
     14     17     1
     15     18     1
     15     19     1
     15     20     1
     17     18     1
     17     19     1
     17     20     1
     18     22     1
     19     22     1

[ angles ]
;    ai     aj     ak funct         c0         c1         c2         c3
      1      2      8     1   111.5100476 543.083200
      2      1      3     1   110.1900474 707.932800
      2      8     10     1   111.5100476 543.083200
      8     10     12     1   111.5100476 543.083200
     10     12     16     1   111.5100476 543.083200
     12     16     20     1   110.1900474 707.932800
      1      2      6     1   109.8000471 391.622400
      1      2      7     1   109.8000471 391.622400
      1      3     21     1   107.2600461 410.032000
      2      1      4     1   109.5600471 392.459200
      2      1      5     1   109.5600471 392.459200
      2      8      9     1   109.8000471 391.622400
      2      8     11     1   109.8000471 391.622400
      3      1      4     1   110.2600474 523.000000
      3      1      5     1   110.2600474 523.000000
      4      1      5     1   108.4600466 324.678400
      6      2      7     1   107.5800459 326.352000
      6      2      8     1   109.8000471 391.622400
      7      2      8     1   109.8000471 391.622400
      8     10     13     1   109.8000471 391.622400
      8     10     14     1   109.8000471 391.622400
      9      8     10     1   109.8000471 391.622400
      9      8     11     1   107.5800459 326.352000
     10      8     11     1   109.8000471 391.622400
     10     12     15     1   109.8000471 391.622400
     10     12     17     1   109.8000471 391.622400
     12     10     13     1   109.8000471 391.622400
     12     10     14     1   109.8000471 391.622400
     12     16     18     1   109.5600471 392.459200
     12     16     19     1   109.5600471 392.459200
     13     10     14     1   107.5800459 326.352000
     15     12     16     1   109.8000471 391.622400
     15     12     17     1   107.5800459 326.352000
     16     12     17     1   109.8000471 391.622400
     16     20     22     1   107.2600461 410.032000
     18     16     19     1   108.4600466 324.678400
     18     16     20     1   110.2600474 523.000000
     19     16     20     1   110.2600474 523.000000

[ dihedrals ]
;    ai     aj     ak     al funct         c0         c1         c2         c3         c4         c5
      1      2      8     10     1  0.0000000  0.4602400  1
      1      2      8     10     1  180.0000771  1.2133600  2
      1      2      8     10     1  0.0000000  0.5439200  3
      2      8     10     12     1  0.0000000  0.4602400  1
      2      8     10     12     1  180.0000771  1.2133600  2
      2      8     10     12     1  0.0000000  0.5439200  3
      3      1      2      8     1  0.0000000  0.8786400  3
      8     10     12     16     1  0.0000000  0.4602400  1
      8     10     12     16     1  180.0000771  1.2133600  2
      8     10     12     16     1  0.0000000  0.5439200  3
     10     12     16     20     1  0.0000000  0.8786400  3
      1      2      8      9     1  0.0000000  0.3347200  3
      1      2      8     11     1  0.0000000  0.3347200  3
      2      1      3     21     1  0.0000000  0.0000000  3
      2      8     10     13     1  0.0000000  0.3347200  3
      2      8     10     14     1  0.0000000  0.3347200  3
      3      1      2      6     1  0.0000000  2.1338400  1
      3      1      2      6     1  0.0000000  0.7531200  3
      3      1      2      7     1  0.0000000  2.1338400  1
      3      1      2      7     1  0.0000000  0.7531200  3
      4      1      2      6     1  0.0000000  0.6508444  3
      4      1      2      7     1  0.0000000  0.6508444  3
      4      1      2      8     1  0.0000000  0.6508444  3
      4      1      3     21     1  0.0000000  0.4727920  3
      5      1      2      6     1  0.0000000  0.6508444  3
      5      1      2      7     1  0.0000000  0.6508444  3
      5      1      2      8     1  0.0000000  0.6508444  3
      5      1      3     21     1  0.0000000  0.4727920  3
      6      2      8      9     1  0.0000000  0.5020800  3
      6      2      8     10     1  0.0000000  0.3347200  3
      6      2      8     11     1  0.0000000  0.5020800  3
      7      2      8      9     1  0.0000000  0.5020800  3
      7      2      8     10     1  0.0000000  0.3347200  3
      7      2      8     11     1  0.0000000  0.5020800  3
      8     10     12     15     1  0.0000000  0.3347200  3
      8     10     12     17     1  0.0000000  0.3347200  3
      9      8     10     12     1  0.0000000  0.3347200  3
      9      8     10     13     1  0.0000000  0.5020800  3
      9      8     10     14     1  0.0000000  0.5020800  3
     10     12     16     18     1  0.0000000  0.6508444  3
     10     12     16     19     1  0.0000000  0.6508444  3
     11      8     10     12     1  0.0000000  0.3347200  3
     11      8     10     13     1  0.0000000  0.5020800  3
     11      8     10     14     1  0.0000000  0.5020800  3
     12     16     20     22     1  0.0000000  0.0000000  3
     13     10     12     15     1  0.0000000  0.5020800  3
     13     10     12     16     1  0.0000000  0.3347200  3
     13     10     12     17     1  0.0000000  0.5020800  3
     14     10     12     15     1  0.0000000  0.5020800  3
     14     10     12     16     1  0.0000000  0.3347200  3
     14     10     12     17     1  0.0000000  0.5020800  3
     15     12     16     18     1  0.0000000  0.6508444  3
     15     12     16     19     1  0.0000000  0.6508444  3
     15     12     16     20     1  0.0000000  2.1338400  1
     15     12     16     20     1  0.0000000  0.7531200  3
     17     12     16     18     1  0.0000000  0.6508444  3
     17     12     16     19     1  0.0000000  0.6508444  3
     17     12     16     20     1  0.0000000  2.1338400  1
     17     12     16     20     1  0.0000000  0.7531200  3
     18     16     20     22     1  0.0000000  0.4727920  3
     19     16     20     22     1  0.0000000  0.4727920  3


; Include a99sb-disp topology
#include "../topology/a99SBdisp.ff/a99SBdisp_water.itp"

; Include topology for ions
#include "../topology/a99SBdisp.ff/ions.itp"

[ system ]
; Name
1,6-hexanediol+FUS in disp water

[ molecules ]
; Compound       #mols
Protein_chain_A     1
SOL             13587
NA                  4
CL                  3
