 [ defaults ] 
; nbfunc        comb-rule       gen-pairs       fudgeLJ fudgeQQ
1               2               yes             0.5     0.8333

[ atomtypes ]
Br           35      79.90   0.0000  A  0.00000e+00  0.00000e+00
sBr          Br      79.90   0.0000  A  0.00000e+00  0.00000e+00
C            6       12.01   0.0000  A  3.39967e-01  3.59824e-01
sC           C       12.01   0.0000  A  3.39967e-01  2.32238e-01
C6           6       12.01   0.0000  A  3.39967e-01  3.59824e-01
sC6          C6      12.01   0.0000  A  3.39967e-01  2.32238e-01
C5           6       12.01   0.0000  A  3.39967e-01  3.59824e-01
sC5          C5      12.01   0.0000  A  3.39967e-01  2.32238e-01
CA           6       12.01   0.0000  A  3.39967e-01  3.59824e-01
sCA          CA      12.01   0.0000  A  3.39967e-01  2.32238e-01
CB           6       12.01   0.0000  A  3.39967e-01  3.59824e-01
sCB          CB      12.01   0.0000  A  3.39967e-01  2.32238e-01
CC           6       12.01   0.0000  A  3.39967e-01  3.59824e-01
sCC          CC      12.01   0.0000  A  3.39967e-01  2.32238e-01
CK           6       12.01   0.0000  A  3.39967e-01  3.59824e-01
sCK          CK      12.01   0.0000  A  3.39967e-01  2.32238e-01
CM           6       12.01   0.0000  A  3.39967e-01  3.59824e-01
sCM          CM      12.01   0.0000  A  3.39967e-01  2.32238e-01
CN           6       12.01   0.0000  A  3.39967e-01  3.59824e-01
sCN          CN      12.01   0.0000  A  3.39967e-01  2.32238e-01
CQ           6       12.01   0.0000  A  3.39967e-01  3.59824e-01
sCQ          CQ      12.01   0.0000  A  3.39967e-01  2.32238e-01
CR           6       12.01   0.0000  A  3.39967e-01  3.59824e-01
sCR          CR      12.01   0.0000  A  3.39967e-01  2.32238e-01
CT           6       12.01   0.0000  A  3.39967e-01  4.57730e-01
sCT          CT      12.01   0.0000  A  3.39967e-01  2.95429e-01
C1           6       12.01   0.0000  A  3.39967e-01  4.57730e-01
sC1          C1      12.01   0.0000  A  3.39967e-01  2.95429e-01
C3           6       12.01   0.0000  A  3.39967e-01  4.57730e-01
sC3          C3      12.01   0.0000  A  3.39967e-01  2.95429e-01
C4           6       12.01   0.0000  A  3.39967e-01  4.57730e-01
sC4          C4      12.01   0.0000  A  3.39967e-01  2.95429e-01
C7           6       12.01   0.0000  A  3.39967e-01  4.57730e-01
sC7          C7      12.01   0.0000  A  3.39967e-01  2.95429e-01
C8           6       12.01   0.0000  A  3.39967e-01  4.57730e-01
sC8          C8      12.01   0.0000  A  3.39967e-01  2.95429e-01
C9           6       12.01   0.0000  A  3.39967e-01  4.57730e-01
sC9          C9      12.01   0.0000  A  3.39967e-01  2.95429e-01
CV           6       12.01   0.0000  A  3.39967e-01  3.59824e-01
sCV          CV      12.01   0.0000  A  3.39967e-01  2.32238e-01
CW           6       12.01   0.0000  A  3.39967e-01  3.59824e-01
sCW          CW      12.01   0.0000  A  3.39967e-01  2.32238e-01
C*           6       12.01   0.0000  A  3.39967e-01  3.59824e-01
sC*          C*      12.01   0.0000  A  3.39967e-01  2.32238e-01
C0           20      40.08   0.0000  A  3.05240e-01  1.92376e+00
sC0          C0      40.08   0.0000  A  3.05240e-01  1.24164e+00
F            9       19.00   0.0000  A  3.11815e-01  2.55224e-01
sF           F       19.00   0.0000  A  3.11815e-01  1.64727e-01
H            1       1.008   0.0000  A  1.06908e-01  6.56888e-02
sH           H       1.008   0.0000  A  1.06908e-01  4.23970e-02
HB           1       1.008   0.0000  A  1.06908e-01  6.56888e-02
sHB          HB      1.008   0.0000  A  1.06908e-01  4.23970e-02
HC           1       1.008   0.0000  A  2.64953e-01  6.56888e-02
sHC          HC      1.008   0.0000  A  2.64953e-01  4.23970e-02
H1           1       1.008   0.0000  A  2.47135e-01  6.56888e-02
sH1          H1      1.008   0.0000  A  2.47135e-01  4.23970e-02
H2           1       1.008   0.0000  A  2.29317e-01  6.56888e-02
sH2          H2      1.008   0.0000  A  2.29317e-01  4.23970e-02
H3           1       1.008   0.0000  A  2.11499e-01  6.56888e-02
sH3          H3      1.008   0.0000  A  2.11499e-01  4.23970e-02
HA           1       1.008   0.0000  A  2.59964e-01  6.27600e-02
sHA          HA      1.008   0.0000  A  2.59964e-01  4.05067e-02
H4           1       1.008   0.0000  A  2.51055e-01  6.27600e-02
sH4          H4      1.008   0.0000  A  2.51055e-01  4.05067e-02
H5           1       1.008   0.0000  A  2.42146e-01  6.27600e-02
sH5          H5      1.008   0.0000  A  2.42146e-01  4.05067e-02
HO           1       1.008   0.0000  A  0.00000e+00  0.00000e+00
sHO          HO      1.008   0.0000  A  0.00000e+00  0.00000e+00
HS           1       1.008   0.0000  A  1.06908e-01  6.56888e-02
sHS          HS      1.008   0.0000  A  1.06908e-01  4.23970e-02
HW           1       1.008   0.0000  A  0.00000e+00  0.00000e+00
sHW          HW      1.008   0.0000  A  0.00000e+00  0.00000e+00
HP           1       1.008   0.0000  A  1.95998e-01  6.56888e-02
sHP          HP      1.008   0.0000  A  1.95998e-01  4.23970e-02
I            53      126.9   0.0000  A  4.18722e-01  1.67360e+00
sI           I       126.9   0.0000  A  4.18722e-01  1.08018e+00
Cl           17      35.45   0.0000  A  4.40104e-01  4.18400e-01
sCl          Cl      35.45   0.0000  A  4.40104e-01  2.70045e-01
Na           11      22.99   0.0000  A  3.32840e-01  1.15897e-02
sNa          Na      22.99   0.0000  A  3.32840e-01  7.48025e-03
IB           0       131.0   0.0000  A  8.90899e-01  4.18400e-01
sIB          IB      131.0   0.0000  A  8.90899e-01  2.70045e-01
MG           12     24.305   0.0000  A  1.41225e-01  3.74342e+00
sMG          MG     24.305   0.0000  A  1.41225e-01  2.41609e+00
N            7       14.01   0.0000  A  3.25000e-01  7.11280e-01
sN           N       14.01   0.0000  A  3.25000e-01  4.59076e-01
NA           7       14.01   0.0000  A  3.25000e-01  7.11280e-01
sNA          NA      14.01   0.0000  A  3.25000e-01  4.59076e-01
NB           7       14.01   0.0000  A  3.25000e-01  7.11280e-01
sNB          NB      14.01   0.0000  A  3.25000e-01  4.59076e-01
NC           7       14.01   0.0000  A  3.25000e-01  7.11280e-01
sNC          NC      14.01   0.0000  A  3.25000e-01  4.59076e-01
N2           7       14.01   0.0000  A  3.25000e-01  7.11280e-01
sN2          N2      14.01   0.0000  A  3.25000e-01  4.59076e-01
N3           7       14.01   0.0000  A  3.25000e-01  7.11280e-01
sN3          N3      14.01   0.0000  A  3.25000e-01  4.59076e-01
N*           7       14.01   0.0000  A  3.25000e-01  7.11280e-01
sN*          N*      14.01   0.0000  A  3.25000e-01  4.59076e-01
O            8       16.00   0.0000  A  2.95992e-01  8.78640e-01
sO           O       16.00   0.0000  A  2.95992e-01  5.67094e-01
OB           8       16.00   0.0000  A  2.95992e-01  8.78640e-01
sOB          OB      16.00   0.0000  A  2.95992e-01  5.67094e-01
OW           8       16.00   0.0000  A  3.15061e-01  6.36386e-01
sOW          OW      16.00   0.0000  A  3.15061e-01  4.10738e-01
OH           8       16.00   0.0000  A  3.06647e-01  8.80314e-01
sOH          OH      16.00   0.0000  A  3.06647e-01  5.68174e-01
O3           8       16.00   0.0000  A  3.06647e-01  8.80314e-01
sO3          O3      16.00   0.0000  A  3.06647e-01  5.68174e-01
OS           8       16.00   0.0000  A  3.00001e-01  7.11280e-01
sOS          OS      16.00   0.0000  A  3.00001e-01  4.59076e-01
O2           8       16.00   0.0000  A  2.95992e-01  8.78640e-01
sO2          O2      16.00   0.0000  A  2.95992e-01  5.67094e-01
P            15      30.97   0.0000  A  3.74177e-01  8.36800e-01
sP           P       30.97   0.0000  A  3.74177e-01  5.40089e-01
S            16      32.06   0.0000  A  3.56359e-01  1.04600e+00
sS           S       32.06   0.0000  A  3.56359e-01  6.75112e-01
SH           16      32.06   0.0000  A  3.56359e-01  1.04600e+00
sSH          SH      32.06   0.0000  A  3.56359e-01  6.75112e-01
CU           29      63.55   0.0000  A  3.39967e-01  3.59824e-01
sCU          CU      63.55   0.0000  A  3.39967e-01  2.32238e-01
FE           26      55.00   0.0000  A  0.00000e+00  0.00000e+00
sFE          FE      55.00   0.0000  A  0.00000e+00  0.00000e+00
K            19      39.10   0.0000  A  4.73602e-01  1.37235e-03
sK           K       39.10   0.0000  A  4.73602e-01  8.85745e-04
Rb           37      85.47   0.0000  A  5.26699e-01  7.11280e-04
sRb          Rb      85.47   0.0000  A  5.26699e-01  4.59076e-04
Cs           55     132.91   0.0000  A  6.04920e-01  3.37230e-04
sCs          Cs     132.91   0.0000  A  6.04920e-01  2.17656e-04
OW_spc       8      15.9994   0.0000  A  3.16557e-01  6.50629e-01
sOW_spc      OW_spc 15.9994   0.0000  A  3.16557e-01  4.19930e-01
HW_spc       1      1.0080   0.0000  A  0.00000e+00  0.00000e+00
sHW_spc      HW_spc 1.0080   0.0000  A  0.00000e+00  0.00000e+00
Li           3        6.94   0.0000  A  2.02590e-01  7.65672e-02
sLi          Li       6.94   0.0000  A  2.02590e-01  4.94182e-02
Zn           30       65.4   0.0000  A  1.95998e-01  5.23000e-02
sZn          Zn       65.4   0.0000  A  1.95998e-01  3.37556e-02
HW_tip4pew   1       1.008   0.0000  A  0.00000e+00  0.00000e+00
sHW_tip4pew  HW_tip4pew  1.008   0.0000  A  0.00000e+00  0.00000e+00
OW_tip4pew   8       16.00   0.0000  A  3.16435e-01  6.80946e-01
sOW_tip4pew  OW_tip4pew  16.00   0.0000  A  3.16435e-01  4.39498e-01
HW_tip4p     1       1.008   0.0000  A  0.00000e+00  0.00000e+00
sHW_tip4p    HW_tip4p  1.008   0.0000  A  0.00000e+00  0.00000e+00
OW_tip4p     8       16.00   0.0000  A  3.15365e-01  6.48520e-01
sOW_tip4p    OW_tip4p  16.00   0.0000  A  3.15365e-01  4.18569e-01
HW_tip5p     1       1.008   0.0000  A  0.00000e+00  0.00000e+00
sHW_tip5p    HW_tip5p  1.008   0.0000  A  0.00000e+00  0.00000e+00
OW_tip5p     8       16.00   0.0000  A  3.12000e-01  6.69440e-01
sOW_tip5p    OW_tip5p  16.00   0.0000  A  3.12000e-01  4.32071e-01
HW_tip4pd    1       1.008   0.0000  A  0.00000e+00  0.00000e+00
sHW_tip4pd   HW_tip4pd  1.008   0.0000  A  0.00000e+00  0.00000e+00
OW_tip4pd    8       16.00   0.0000  A  3.16500e-01  9.98989e-01
sOW_tip4pd   OW_tip4pd  16.00   0.0000  A  3.16500e-01  6.44770e-01
MW           0      0.0000   0.0000  A  0.00000e+00  0.00000e+00
sMW          MW     0.0000   0.0000  A  0.00000e+00  0.00000e+00
MCH3         0      0.0000   0.0000  A  0.00000e+00  0.00000e+00
sMCH3        MCH3   0.0000   0.0000  A  0.00000e+00  0.00000e+00
MNH3         0      0.0000   0.0000  A  0.00000e+00  0.00000e+00
sMNH3        MNH3   0.0000   0.0000  A  0.00000e+00  0.00000e+00
c3           c3     0.00000  0.00000  A  3.39967e-01  4.57730e-01
sc3          c3     0.00000  0.00000  A  3.39967e-01  7.06092e-02
hc           hc     0.00000  0.00000  A  2.64953e-01  6.56888e-02
shc          hc     0.00000  0.00000  A  2.64953e-01  1.01331e-02
c            c      0.00000  0.00000  A  3.39967e-01  3.59824e-01
sc           c      0.00000  0.00000  A  3.39967e-01  5.55063e-02
o            o      0.00000  0.00000  A  2.95992e-01  8.78640e-01
so           o      0.00000  0.00000  A  2.95992e-01  1.35539e-01
n            n      0.00000  0.00000  A  3.25000e-01  7.11280e-01
sn           n      0.00000  0.00000  A  3.25000e-01  1.09722e-01
h1           h1     0.00000  0.00000  A  2.47135e-01  6.56888e-02
sh1          h1     0.00000  0.00000  A  2.47135e-01  1.01331e-02
ca           ca     0.00000  0.00000  A  3.39967e-01  3.59824e-01
sca          ca     0.00000  0.00000  A  3.39967e-01  5.55063e-02
ha           ha     0.00000  0.00000  A  2.59964e-01  6.27600e-02
sha          ha     0.00000  0.00000  A  2.59964e-01  9.68133e-03
sy           sy     0.00000  0.00000  A  3.56359e-01  1.04600e+00
ssy          sy     0.00000  0.00000  A  3.56359e-01  1.61356e-01
n3           n3     0.00000  0.00000  A  3.25000e-01  7.11280e-01
sn3          n3     0.00000  0.00000  A  3.25000e-01  1.09722e-01
hx           hx     0.00000  0.00000  A  1.95998e-01  6.56888e-02
shx          hx     0.00000  0.00000  A  1.95998e-01  1.01331e-02
n4           n4     0.00000  0.00000  A  3.25000e-01  7.11280e-01
sn4          n4     0.00000  0.00000  A  3.25000e-01  1.09722e-01
hn           hn     0.00000  0.00000  A  1.06908e-01  6.56888e-02
shn          hn     0.00000  0.00000  A  1.06908e-01  1.01331e-02

[ nonbond_params ]
  OB   HB     1      0.150   1.2552
  sOB  sHB     1      0.150   0.8101
  sBr   Br   1       0.0000   0.0000
  sBr    C   1       0.1700   0.0000
  sBr   C6   1       0.1700   0.0000
  sBr   C5   1       0.1700   0.0000
  sBr   CA   1       0.1700   0.0000
  sBr   CB   1       0.1700   0.0000
  sBr   CC   1       0.1700   0.0000
  sBr   CK   1       0.1700   0.0000
  sBr   CM   1       0.1700   0.0000
  sBr   CN   1       0.1700   0.0000
  sBr   CQ   1       0.1700   0.0000
  sBr   CR   1       0.1700   0.0000
  sBr   CT   1       0.1700   0.0000
  sBr   C1   1       0.1700   0.0000
  sBr   C3   1       0.1700   0.0000
  sBr   C4   1       0.1700   0.0000
  sBr   C7   1       0.1700   0.0000
  sBr   C8   1       0.1700   0.0000
  sBr   C9   1       0.1700   0.0000
  sBr   CV   1       0.1700   0.0000
  sBr   CW   1       0.1700   0.0000
  sBr   C*   1       0.1700   0.0000
  sBr   C0   1       0.1526   0.0000
  sBr    F   1       0.1559   0.0000
  sBr    H   1       0.0535   0.0000
  sBr   HB   1       0.0535   0.0000
  sBr   HC   1       0.1325   0.0000
  sBr   H1   1       0.1236   0.0000
  sBr   H2   1       0.1147   0.0000
  sBr   H3   1       0.1057   0.0000
  sBr   HA   1       0.1300   0.0000
  sBr   H4   1       0.1255   0.0000
  sBr   H5   1       0.1211   0.0000
  sBr   HO   1       0.0000   0.0000
  sBr   HS   1       0.0535   0.0000
  sBr   HW   1       0.0000   0.0000
  sBr   HP   1       0.0980   0.0000
  sBr    I   1       0.2094   0.0000
  sBr   Cl   1       0.2201   0.0000
  sBr   Na   1       0.1664   0.0000
  sBr   IB   1       0.4454   0.0000
  sBr   MG   1       0.0706   0.0000
  sBr    N   1       0.1625   0.0000
  sBr   NA   1       0.1625   0.0000
  sBr   NB   1       0.1625   0.0000
  sBr   NC   1       0.1625   0.0000
  sBr   N2   1       0.1625   0.0000
  sBr   N3   1       0.1625   0.0000
  sBr   N*   1       0.1625   0.0000
  sBr    O   1       0.1480   0.0000
  sBr   OB   1       0.1480   0.0000
  sBr   OW   1       0.1575   0.0000
  sBr   OH   1       0.1533   0.0000
  sBr   O3   1       0.1533   0.0000
  sBr   OS   1       0.1500   0.0000
  sBr   O2   1       0.1480   0.0000
  sBr    P   1       0.1871   0.0000
  sBr    S   1       0.1782   0.0000
  sBr   SH   1       0.1782   0.0000
  sBr   CU   1       0.1700   0.0000
  sBr   FE   1       0.0000   0.0000
  sBr    K   1       0.2368   0.0000
  sBr   Rb   1       0.2633   0.0000
  sBr   Li   1       0.1013   0.0000
  sBr   Zn   1       0.0980   0.0000
  sBr HW_tip4pew   1       0.0000   0.0000
  sBr OW_tip4pew   1       0.1582   0.0000
  sBr HW_tip4p   1       0.0000   0.0000
  sBr OW_tip4p   1       0.1577   0.0000
  sBr HW_tip5p   1       0.0000   0.0000
  sBr OW_tip5p   1       0.1560   0.0000
  sBr HW_tip4pd   1       0.0000   0.0000
  sBr OW_tip4pd   1       0.1583   0.0000
  sBr   MW   1       0.0000   0.0000
  sBr MCH3   1       0.0000   0.0000
  sBr MNH3   1       0.0000   0.0000
  sBr   c3   1       0.1700   0.0000
  sBr   hc   1       0.1325   0.0000
  sBr    c   1       0.1700   0.0000
  sBr    o   1       0.1480   0.0000
  sBr    n   1       0.1625   0.0000
  sBr   h1   1       0.1236   0.0000
  sBr   ca   1       0.1700   0.0000
  sBr   ha   1       0.1300   0.0000
  sBr   n3   1       0.1625   0.0000
  sBr   hx   1       0.0980   0.0000
  sBr   n4   1       0.1625   0.0000
  sBr   hn   1       0.0535   0.0000
   sC   Br   1       0.1700   0.0000
   sC    C   1       0.3400   0.2439
   sC   C6   1       0.3400   0.2439
   sC   C5   1       0.3400   0.2439
   sC   CA   1       0.3400   0.2439
   sC   CB   1       0.3400   0.2439
   sC   CC   1       0.3400   0.2439
   sC   CK   1       0.3400   0.2439
   sC   CM   1       0.3400   0.2439
   sC   CN   1       0.3400   0.2439
   sC   CQ   1       0.3400   0.2439
   sC   CR   1       0.3400   0.2439
   sC   CT   1       0.3400   0.2750
   sC   C1   1       0.3400   0.2750
   sC   C3   1       0.3400   0.2750
   sC   C4   1       0.3400   0.2750
   sC   C7   1       0.3400   0.2750
   sC   C8   1       0.3400   0.2750
   sC   C9   1       0.3400   0.2750
   sC   CV   1       0.3400   0.2439
   sC   CW   1       0.3400   0.2439
   sC   C*   1       0.3400   0.2439
   sC   C0   1       0.3226   0.5638
   sC    F   1       0.3259   0.2054
   sC    H   1       0.2234   0.1042
   sC   HB   1       0.2234   0.1042
   sC   HC   1       0.3025   0.1042
   sC   H1   1       0.2936   0.1042
   sC   H2   1       0.2846   0.1042
   sC   H3   1       0.2757   0.1042
   sC   HA   1       0.3000   0.1018
   sC   H4   1       0.2955   0.1018
   sC   H5   1       0.2911   0.1018
   sC   HO   1       0.1700   0.0000
   sC   HS   1       0.2234   0.1042
   sC   HW   1       0.1700   0.0000
   sC   HP   1       0.2680   0.1042
   sC    I   1       0.3793   0.5259
   sC   Cl   1       0.3900   0.2630
   sC   Na   1       0.3364   0.0438
   sC   IB   1       0.6154   0.2630
   sC   MG   1       0.2406   0.7865
   sC    N   1       0.3325   0.3428
   sC   NA   1       0.3325   0.3428
   sC   NB   1       0.3325   0.3428
   sC   NC   1       0.3325   0.3428
   sC   N2   1       0.3325   0.3428
   sC   N3   1       0.3325   0.3428
   sC   N*   1       0.3325   0.3428
   sC    O   1       0.3180   0.3811
   sC   OB   1       0.3180   0.3811
   sC   OW   1       0.3275   0.3243
   sC   OH   1       0.3233   0.3814
   sC   O3   1       0.3233   0.3814
   sC   OS   1       0.3200   0.3428
   sC   O2   1       0.3180   0.3811
   sC    P   1       0.3571   0.3719
   sC    S   1       0.3482   0.4158
   sC   SH   1       0.3482   0.4158
   sC   CU   1       0.3400   0.2439
   sC   FE   1       0.1700   0.0000
   sC    K   1       0.4068   0.0151
   sC   Rb   1       0.4333   0.0108
   sC   Li   1       0.2713   0.1125
   sC   Zn   1       0.2680   0.0930
   sC HW_tip4pew   1       0.1700   0.0000
   sC OW_tip4pew   1       0.3282   0.3355
   sC HW_tip4p   1       0.1700   0.0000
   sC OW_tip4p   1       0.3277   0.3274
   sC HW_tip5p   1       0.1700   0.0000
   sC OW_tip5p   1       0.3260   0.3326
   sC HW_tip4pd   1       0.1700   0.0000
   sC OW_tip4pd   1       0.3282   0.4063
   sC   MW   1       0.1700   0.0000
   sC MCH3   1       0.1700   0.0000
   sC MNH3   1       0.1700   0.0000
   sC   c3   1       0.3400   0.2750
   sC   hc   1       0.3025   0.1042
   sC    c   1       0.3400   0.2439
   sC    o   1       0.3180   0.3811
   sC    n   1       0.3325   0.3428
   sC   h1   1       0.2936   0.1042
   sC   ca   1       0.3400   0.2439
   sC   ha   1       0.3000   0.1018
   sC   n3   1       0.3325   0.3428
   sC   hx   1       0.2680   0.1042
   sC   n4   1       0.3325   0.3428
   sC   hn   1       0.2234   0.1042
  sC6   Br   1       0.1700   0.0000
  sC6    C   1       0.3400   0.2439
  sC6   C6   1       0.3400   0.2439
  sC6   C5   1       0.3400   0.2439
  sC6   CA   1       0.3400   0.2439
  sC6   CB   1       0.3400   0.2439
  sC6   CC   1       0.3400   0.2439
  sC6   CK   1       0.3400   0.2439
  sC6   CM   1       0.3400   0.2439
  sC6   CN   1       0.3400   0.2439
  sC6   CQ   1       0.3400   0.2439
  sC6   CR   1       0.3400   0.2439
  sC6   CT   1       0.3400   0.2750
  sC6   C1   1       0.3400   0.2750
  sC6   C3   1       0.3400   0.2750
  sC6   C4   1       0.3400   0.2750
  sC6   C7   1       0.3400   0.2750
  sC6   C8   1       0.3400   0.2750
  sC6   C9   1       0.3400   0.2750
  sC6   CV   1       0.3400   0.2439
  sC6   CW   1       0.3400   0.2439
  sC6   C*   1       0.3400   0.2439
  sC6   C0   1       0.3226   0.5638
  sC6    F   1       0.3259   0.2054
  sC6    H   1       0.2234   0.1042
  sC6   HB   1       0.2234   0.1042
  sC6   HC   1       0.3025   0.1042
  sC6   H1   1       0.2936   0.1042
  sC6   H2   1       0.2846   0.1042
  sC6   H3   1       0.2757   0.1042
  sC6   HA   1       0.3000   0.1018
  sC6   H4   1       0.2955   0.1018
  sC6   H5   1       0.2911   0.1018
  sC6   HO   1       0.1700   0.0000
  sC6   HS   1       0.2234   0.1042
  sC6   HW   1       0.1700   0.0000
  sC6   HP   1       0.2680   0.1042
  sC6    I   1       0.3793   0.5259
  sC6   Cl   1       0.3900   0.2630
  sC6   Na   1       0.3364   0.0438
  sC6   IB   1       0.6154   0.2630
  sC6   MG   1       0.2406   0.7865
  sC6    N   1       0.3325   0.3428
  sC6   NA   1       0.3325   0.3428
  sC6   NB   1       0.3325   0.3428
  sC6   NC   1       0.3325   0.3428
  sC6   N2   1       0.3325   0.3428
  sC6   N3   1       0.3325   0.3428
  sC6   N*   1       0.3325   0.3428
  sC6    O   1       0.3180   0.3811
  sC6   OB   1       0.3180   0.3811
  sC6   OW   1       0.3275   0.3243
  sC6   OH   1       0.3233   0.3814
  sC6   O3   1       0.3233   0.3814
  sC6   OS   1       0.3200   0.3428
  sC6   O2   1       0.3180   0.3811
  sC6    P   1       0.3571   0.3719
  sC6    S   1       0.3482   0.4158
  sC6   SH   1       0.3482   0.4158
  sC6   CU   1       0.3400   0.2439
  sC6   FE   1       0.1700   0.0000
  sC6    K   1       0.4068   0.0151
  sC6   Rb   1       0.4333   0.0108
  sC6   Li   1       0.2713   0.1125
  sC6   Zn   1       0.2680   0.0930
  sC6 HW_tip4pew   1       0.1700   0.0000
  sC6 OW_tip4pew   1       0.3282   0.3355
  sC6 HW_tip4p   1       0.1700   0.0000
  sC6 OW_tip4p   1       0.3277   0.3274
  sC6 HW_tip5p   1       0.1700   0.0000
  sC6 OW_tip5p   1       0.3260   0.3326
  sC6 HW_tip4pd   1       0.1700   0.0000
  sC6 OW_tip4pd   1       0.3282   0.4063
  sC6   MW   1       0.1700   0.0000
  sC6 MCH3   1       0.1700   0.0000
  sC6 MNH3   1       0.1700   0.0000
  sC6   c3   1       0.3400   0.2750
  sC6   hc   1       0.3025   0.1042
  sC6    c   1       0.3400   0.2439
  sC6    o   1       0.3180   0.3811
  sC6    n   1       0.3325   0.3428
  sC6   h1   1       0.2936   0.1042
  sC6   ca   1       0.3400   0.2439
  sC6   ha   1       0.3000   0.1018
  sC6   n3   1       0.3325   0.3428
  sC6   hx   1       0.2680   0.1042
  sC6   n4   1       0.3325   0.3428
  sC6   hn   1       0.2234   0.1042
  sC5   Br   1       0.1700   0.0000
  sC5    C   1       0.3400   0.2439
  sC5   C6   1       0.3400   0.2439
  sC5   C5   1       0.3400   0.2439
  sC5   CA   1       0.3400   0.2439
  sC5   CB   1       0.3400   0.2439
  sC5   CC   1       0.3400   0.2439
  sC5   CK   1       0.3400   0.2439
  sC5   CM   1       0.3400   0.2439
  sC5   CN   1       0.3400   0.2439
  sC5   CQ   1       0.3400   0.2439
  sC5   CR   1       0.3400   0.2439
  sC5   CT   1       0.3400   0.2750
  sC5   C1   1       0.3400   0.2750
  sC5   C3   1       0.3400   0.2750
  sC5   C4   1       0.3400   0.2750
  sC5   C7   1       0.3400   0.2750
  sC5   C8   1       0.3400   0.2750
  sC5   C9   1       0.3400   0.2750
  sC5   CV   1       0.3400   0.2439
  sC5   CW   1       0.3400   0.2439
  sC5   C*   1       0.3400   0.2439
  sC5   C0   1       0.3226   0.5638
  sC5    F   1       0.3259   0.2054
  sC5    H   1       0.2234   0.1042
  sC5   HB   1       0.2234   0.1042
  sC5   HC   1       0.3025   0.1042
  sC5   H1   1       0.2936   0.1042
  sC5   H2   1       0.2846   0.1042
  sC5   H3   1       0.2757   0.1042
  sC5   HA   1       0.3000   0.1018
  sC5   H4   1       0.2955   0.1018
  sC5   H5   1       0.2911   0.1018
  sC5   HO   1       0.1700   0.0000
  sC5   HS   1       0.2234   0.1042
  sC5   HW   1       0.1700   0.0000
  sC5   HP   1       0.2680   0.1042
  sC5    I   1       0.3793   0.5259
  sC5   Cl   1       0.3900   0.2630
  sC5   Na   1       0.3364   0.0438
  sC5   IB   1       0.6154   0.2630
  sC5   MG   1       0.2406   0.7865
  sC5    N   1       0.3325   0.3428
  sC5   NA   1       0.3325   0.3428
  sC5   NB   1       0.3325   0.3428
  sC5   NC   1       0.3325   0.3428
  sC5   N2   1       0.3325   0.3428
  sC5   N3   1       0.3325   0.3428
  sC5   N*   1       0.3325   0.3428
  sC5    O   1       0.3180   0.3811
  sC5   OB   1       0.3180   0.3811
  sC5   OW   1       0.3275   0.3243
  sC5   OH   1       0.3233   0.3814
  sC5   O3   1       0.3233   0.3814
  sC5   OS   1       0.3200   0.3428
  sC5   O2   1       0.3180   0.3811
  sC5    P   1       0.3571   0.3719
  sC5    S   1       0.3482   0.4158
  sC5   SH   1       0.3482   0.4158
  sC5   CU   1       0.3400   0.2439
  sC5   FE   1       0.1700   0.0000
  sC5    K   1       0.4068   0.0151
  sC5   Rb   1       0.4333   0.0108
  sC5   Li   1       0.2713   0.1125
  sC5   Zn   1       0.2680   0.0930
  sC5 HW_tip4pew   1       0.1700   0.0000
  sC5 OW_tip4pew   1       0.3282   0.3355
  sC5 HW_tip4p   1       0.1700   0.0000
  sC5 OW_tip4p   1       0.3277   0.3274
  sC5 HW_tip5p   1       0.1700   0.0000
  sC5 OW_tip5p   1       0.3260   0.3326
  sC5 HW_tip4pd   1       0.1700   0.0000
  sC5 OW_tip4pd   1       0.3282   0.4063
  sC5   MW   1       0.1700   0.0000
  sC5 MCH3   1       0.1700   0.0000
  sC5 MNH3   1       0.1700   0.0000
  sC5   c3   1       0.3400   0.2750
  sC5   hc   1       0.3025   0.1042
  sC5    c   1       0.3400   0.2439
  sC5    o   1       0.3180   0.3811
  sC5    n   1       0.3325   0.3428
  sC5   h1   1       0.2936   0.1042
  sC5   ca   1       0.3400   0.2439
  sC5   ha   1       0.3000   0.1018
  sC5   n3   1       0.3325   0.3428
  sC5   hx   1       0.2680   0.1042
  sC5   n4   1       0.3325   0.3428
  sC5   hn   1       0.2234   0.1042
  sCA   Br   1       0.1700   0.0000
  sCA    C   1       0.3400   0.2439
  sCA   C6   1       0.3400   0.2439
  sCA   C5   1       0.3400   0.2439
  sCA   CA   1       0.3400   0.2439
  sCA   CB   1       0.3400   0.2439
  sCA   CC   1       0.3400   0.2439
  sCA   CK   1       0.3400   0.2439
  sCA   CM   1       0.3400   0.2439
  sCA   CN   1       0.3400   0.2439
  sCA   CQ   1       0.3400   0.2439
  sCA   CR   1       0.3400   0.2439
  sCA   CT   1       0.3400   0.2750
  sCA   C1   1       0.3400   0.2750
  sCA   C3   1       0.3400   0.2750
  sCA   C4   1       0.3400   0.2750
  sCA   C7   1       0.3400   0.2750
  sCA   C8   1       0.3400   0.2750
  sCA   C9   1       0.3400   0.2750
  sCA   CV   1       0.3400   0.2439
  sCA   CW   1       0.3400   0.2439
  sCA   C*   1       0.3400   0.2439
  sCA   C0   1       0.3226   0.5638
  sCA    F   1       0.3259   0.2054
  sCA    H   1       0.2234   0.1042
  sCA   HB   1       0.2234   0.1042
  sCA   HC   1       0.3025   0.1042
  sCA   H1   1       0.2936   0.1042
  sCA   H2   1       0.2846   0.1042
  sCA   H3   1       0.2757   0.1042
  sCA   HA   1       0.3000   0.1018
  sCA   H4   1       0.2955   0.1018
  sCA   H5   1       0.2911   0.1018
  sCA   HO   1       0.1700   0.0000
  sCA   HS   1       0.2234   0.1042
  sCA   HW   1       0.1700   0.0000
  sCA   HP   1       0.2680   0.1042
  sCA    I   1       0.3793   0.5259
  sCA   Cl   1       0.3900   0.2630
  sCA   Na   1       0.3364   0.0438
  sCA   IB   1       0.6154   0.2630
  sCA   MG   1       0.2406   0.7865
  sCA    N   1       0.3325   0.3428
  sCA   NA   1       0.3325   0.3428
  sCA   NB   1       0.3325   0.3428
  sCA   NC   1       0.3325   0.3428
  sCA   N2   1       0.3325   0.3428
  sCA   N3   1       0.3325   0.3428
  sCA   N*   1       0.3325   0.3428
  sCA    O   1       0.3180   0.3811
  sCA   OB   1       0.3180   0.3811
  sCA   OW   1       0.3275   0.3243
  sCA   OH   1       0.3233   0.3814
  sCA   O3   1       0.3233   0.3814
  sCA   OS   1       0.3200   0.3428
  sCA   O2   1       0.3180   0.3811
  sCA    P   1       0.3571   0.3719
  sCA    S   1       0.3482   0.4158
  sCA   SH   1       0.3482   0.4158
  sCA   CU   1       0.3400   0.2439
  sCA   FE   1       0.1700   0.0000
  sCA    K   1       0.4068   0.0151
  sCA   Rb   1       0.4333   0.0108
  sCA   Li   1       0.2713   0.1125
  sCA   Zn   1       0.2680   0.0930
  sCA HW_tip4pew   1       0.1700   0.0000
  sCA OW_tip4pew   1       0.3282   0.3355
  sCA HW_tip4p   1       0.1700   0.0000
  sCA OW_tip4p   1       0.3277   0.3274
  sCA HW_tip5p   1       0.1700   0.0000
  sCA OW_tip5p   1       0.3260   0.3326
  sCA HW_tip4pd   1       0.1700   0.0000
  sCA OW_tip4pd   1       0.3282   0.4063
  sCA   MW   1       0.1700   0.0000
  sCA MCH3   1       0.1700   0.0000
  sCA MNH3   1       0.1700   0.0000
  sCA   c3   1       0.3400   0.2750
  sCA   hc   1       0.3025   0.1042
  sCA    c   1       0.3400   0.2439
  sCA    o   1       0.3180   0.3811
  sCA    n   1       0.3325   0.3428
  sCA   h1   1       0.2936   0.1042
  sCA   ca   1       0.3400   0.2439
  sCA   ha   1       0.3000   0.1018
  sCA   n3   1       0.3325   0.3428
  sCA   hx   1       0.2680   0.1042
  sCA   n4   1       0.3325   0.3428
  sCA   hn   1       0.2234   0.1042
  sCB   Br   1       0.1700   0.0000
  sCB    C   1       0.3400   0.2439
  sCB   C6   1       0.3400   0.2439
  sCB   C5   1       0.3400   0.2439
  sCB   CA   1       0.3400   0.2439
  sCB   CB   1       0.3400   0.2439
  sCB   CC   1       0.3400   0.2439
  sCB   CK   1       0.3400   0.2439
  sCB   CM   1       0.3400   0.2439
  sCB   CN   1       0.3400   0.2439
  sCB   CQ   1       0.3400   0.2439
  sCB   CR   1       0.3400   0.2439
  sCB   CT   1       0.3400   0.2750
  sCB   C1   1       0.3400   0.2750
  sCB   C3   1       0.3400   0.2750
  sCB   C4   1       0.3400   0.2750
  sCB   C7   1       0.3400   0.2750
  sCB   C8   1       0.3400   0.2750
  sCB   C9   1       0.3400   0.2750
  sCB   CV   1       0.3400   0.2439
  sCB   CW   1       0.3400   0.2439
  sCB   C*   1       0.3400   0.2439
  sCB   C0   1       0.3226   0.5638
  sCB    F   1       0.3259   0.2054
  sCB    H   1       0.2234   0.1042
  sCB   HB   1       0.2234   0.1042
  sCB   HC   1       0.3025   0.1042
  sCB   H1   1       0.2936   0.1042
  sCB   H2   1       0.2846   0.1042
  sCB   H3   1       0.2757   0.1042
  sCB   HA   1       0.3000   0.1018
  sCB   H4   1       0.2955   0.1018
  sCB   H5   1       0.2911   0.1018
  sCB   HO   1       0.1700   0.0000
  sCB   HS   1       0.2234   0.1042
  sCB   HW   1       0.1700   0.0000
  sCB   HP   1       0.2680   0.1042
  sCB    I   1       0.3793   0.5259
  sCB   Cl   1       0.3900   0.2630
  sCB   Na   1       0.3364   0.0438
  sCB   IB   1       0.6154   0.2630
  sCB   MG   1       0.2406   0.7865
  sCB    N   1       0.3325   0.3428
  sCB   NA   1       0.3325   0.3428
  sCB   NB   1       0.3325   0.3428
  sCB   NC   1       0.3325   0.3428
  sCB   N2   1       0.3325   0.3428
  sCB   N3   1       0.3325   0.3428
  sCB   N*   1       0.3325   0.3428
  sCB    O   1       0.3180   0.3811
  sCB   OB   1       0.3180   0.3811
  sCB   OW   1       0.3275   0.3243
  sCB   OH   1       0.3233   0.3814
  sCB   O3   1       0.3233   0.3814
  sCB   OS   1       0.3200   0.3428
  sCB   O2   1       0.3180   0.3811
  sCB    P   1       0.3571   0.3719
  sCB    S   1       0.3482   0.4158
  sCB   SH   1       0.3482   0.4158
  sCB   CU   1       0.3400   0.2439
  sCB   FE   1       0.1700   0.0000
  sCB    K   1       0.4068   0.0151
  sCB   Rb   1       0.4333   0.0108
  sCB   Li   1       0.2713   0.1125
  sCB   Zn   1       0.2680   0.0930
  sCB HW_tip4pew   1       0.1700   0.0000
  sCB OW_tip4pew   1       0.3282   0.3355
  sCB HW_tip4p   1       0.1700   0.0000
  sCB OW_tip4p   1       0.3277   0.3274
  sCB HW_tip5p   1       0.1700   0.0000
  sCB OW_tip5p   1       0.3260   0.3326
  sCB HW_tip4pd   1       0.1700   0.0000
  sCB OW_tip4pd   1       0.3282   0.4063
  sCB   MW   1       0.1700   0.0000
  sCB MCH3   1       0.1700   0.0000
  sCB MNH3   1       0.1700   0.0000
  sCB   c3   1       0.3400   0.2750
  sCB   hc   1       0.3025   0.1042
  sCB    c   1       0.3400   0.2439
  sCB    o   1       0.3180   0.3811
  sCB    n   1       0.3325   0.3428
  sCB   h1   1       0.2936   0.1042
  sCB   ca   1       0.3400   0.2439
  sCB   ha   1       0.3000   0.1018
  sCB   n3   1       0.3325   0.3428
  sCB   hx   1       0.2680   0.1042
  sCB   n4   1       0.3325   0.3428
  sCB   hn   1       0.2234   0.1042
  sCC   Br   1       0.1700   0.0000
  sCC    C   1       0.3400   0.2439
  sCC   C6   1       0.3400   0.2439
  sCC   C5   1       0.3400   0.2439
  sCC   CA   1       0.3400   0.2439
  sCC   CB   1       0.3400   0.2439
  sCC   CC   1       0.3400   0.2439
  sCC   CK   1       0.3400   0.2439
  sCC   CM   1       0.3400   0.2439
  sCC   CN   1       0.3400   0.2439
  sCC   CQ   1       0.3400   0.2439
  sCC   CR   1       0.3400   0.2439
  sCC   CT   1       0.3400   0.2750
  sCC   C1   1       0.3400   0.2750
  sCC   C3   1       0.3400   0.2750
  sCC   C4   1       0.3400   0.2750
  sCC   C7   1       0.3400   0.2750
  sCC   C8   1       0.3400   0.2750
  sCC   C9   1       0.3400   0.2750
  sCC   CV   1       0.3400   0.2439
  sCC   CW   1       0.3400   0.2439
  sCC   C*   1       0.3400   0.2439
  sCC   C0   1       0.3226   0.5638
  sCC    F   1       0.3259   0.2054
  sCC    H   1       0.2234   0.1042
  sCC   HB   1       0.2234   0.1042
  sCC   HC   1       0.3025   0.1042
  sCC   H1   1       0.2936   0.1042
  sCC   H2   1       0.2846   0.1042
  sCC   H3   1       0.2757   0.1042
  sCC   HA   1       0.3000   0.1018
  sCC   H4   1       0.2955   0.1018
  sCC   H5   1       0.2911   0.1018
  sCC   HO   1       0.1700   0.0000
  sCC   HS   1       0.2234   0.1042
  sCC   HW   1       0.1700   0.0000
  sCC   HP   1       0.2680   0.1042
  sCC    I   1       0.3793   0.5259
  sCC   Cl   1       0.3900   0.2630
  sCC   Na   1       0.3364   0.0438
  sCC   IB   1       0.6154   0.2630
  sCC   MG   1       0.2406   0.7865
  sCC    N   1       0.3325   0.3428
  sCC   NA   1       0.3325   0.3428
  sCC   NB   1       0.3325   0.3428
  sCC   NC   1       0.3325   0.3428
  sCC   N2   1       0.3325   0.3428
  sCC   N3   1       0.3325   0.3428
  sCC   N*   1       0.3325   0.3428
  sCC    O   1       0.3180   0.3811
  sCC   OB   1       0.3180   0.3811
  sCC   OW   1       0.3275   0.3243
  sCC   OH   1       0.3233   0.3814
  sCC   O3   1       0.3233   0.3814
  sCC   OS   1       0.3200   0.3428
  sCC   O2   1       0.3180   0.3811
  sCC    P   1       0.3571   0.3719
  sCC    S   1       0.3482   0.4158
  sCC   SH   1       0.3482   0.4158
  sCC   CU   1       0.3400   0.2439
  sCC   FE   1       0.1700   0.0000
  sCC    K   1       0.4068   0.0151
  sCC   Rb   1       0.4333   0.0108
  sCC   Li   1       0.2713   0.1125
  sCC   Zn   1       0.2680   0.0930
  sCC HW_tip4pew   1       0.1700   0.0000
  sCC OW_tip4pew   1       0.3282   0.3355
  sCC HW_tip4p   1       0.1700   0.0000
  sCC OW_tip4p   1       0.3277   0.3274
  sCC HW_tip5p   1       0.1700   0.0000
  sCC OW_tip5p   1       0.3260   0.3326
  sCC HW_tip4pd   1       0.1700   0.0000
  sCC OW_tip4pd   1       0.3282   0.4063
  sCC   MW   1       0.1700   0.0000
  sCC MCH3   1       0.1700   0.0000
  sCC MNH3   1       0.1700   0.0000
  sCC   c3   1       0.3400   0.2750
  sCC   hc   1       0.3025   0.1042
  sCC    c   1       0.3400   0.2439
  sCC    o   1       0.3180   0.3811
  sCC    n   1       0.3325   0.3428
  sCC   h1   1       0.2936   0.1042
  sCC   ca   1       0.3400   0.2439
  sCC   ha   1       0.3000   0.1018
  sCC   n3   1       0.3325   0.3428
  sCC   hx   1       0.2680   0.1042
  sCC   n4   1       0.3325   0.3428
  sCC   hn   1       0.2234   0.1042
  sCK   Br   1       0.1700   0.0000
  sCK    C   1       0.3400   0.2439
  sCK   C6   1       0.3400   0.2439
  sCK   C5   1       0.3400   0.2439
  sCK   CA   1       0.3400   0.2439
  sCK   CB   1       0.3400   0.2439
  sCK   CC   1       0.3400   0.2439
  sCK   CK   1       0.3400   0.2439
  sCK   CM   1       0.3400   0.2439
  sCK   CN   1       0.3400   0.2439
  sCK   CQ   1       0.3400   0.2439
  sCK   CR   1       0.3400   0.2439
  sCK   CT   1       0.3400   0.2750
  sCK   C1   1       0.3400   0.2750
  sCK   C3   1       0.3400   0.2750
  sCK   C4   1       0.3400   0.2750
  sCK   C7   1       0.3400   0.2750
  sCK   C8   1       0.3400   0.2750
  sCK   C9   1       0.3400   0.2750
  sCK   CV   1       0.3400   0.2439
  sCK   CW   1       0.3400   0.2439
  sCK   C*   1       0.3400   0.2439
  sCK   C0   1       0.3226   0.5638
  sCK    F   1       0.3259   0.2054
  sCK    H   1       0.2234   0.1042
  sCK   HB   1       0.2234   0.1042
  sCK   HC   1       0.3025   0.1042
  sCK   H1   1       0.2936   0.1042
  sCK   H2   1       0.2846   0.1042
  sCK   H3   1       0.2757   0.1042
  sCK   HA   1       0.3000   0.1018
  sCK   H4   1       0.2955   0.1018
  sCK   H5   1       0.2911   0.1018
  sCK   HO   1       0.1700   0.0000
  sCK   HS   1       0.2234   0.1042
  sCK   HW   1       0.1700   0.0000
  sCK   HP   1       0.2680   0.1042
  sCK    I   1       0.3793   0.5259
  sCK   Cl   1       0.3900   0.2630
  sCK   Na   1       0.3364   0.0438
  sCK   IB   1       0.6154   0.2630
  sCK   MG   1       0.2406   0.7865
  sCK    N   1       0.3325   0.3428
  sCK   NA   1       0.3325   0.3428
  sCK   NB   1       0.3325   0.3428
  sCK   NC   1       0.3325   0.3428
  sCK   N2   1       0.3325   0.3428
  sCK   N3   1       0.3325   0.3428
  sCK   N*   1       0.3325   0.3428
  sCK    O   1       0.3180   0.3811
  sCK   OB   1       0.3180   0.3811
  sCK   OW   1       0.3275   0.3243
  sCK   OH   1       0.3233   0.3814
  sCK   O3   1       0.3233   0.3814
  sCK   OS   1       0.3200   0.3428
  sCK   O2   1       0.3180   0.3811
  sCK    P   1       0.3571   0.3719
  sCK    S   1       0.3482   0.4158
  sCK   SH   1       0.3482   0.4158
  sCK   CU   1       0.3400   0.2439
  sCK   FE   1       0.1700   0.0000
  sCK    K   1       0.4068   0.0151
  sCK   Rb   1       0.4333   0.0108
  sCK   Li   1       0.2713   0.1125
  sCK   Zn   1       0.2680   0.0930
  sCK HW_tip4pew   1       0.1700   0.0000
  sCK OW_tip4pew   1       0.3282   0.3355
  sCK HW_tip4p   1       0.1700   0.0000
  sCK OW_tip4p   1       0.3277   0.3274
  sCK HW_tip5p   1       0.1700   0.0000
  sCK OW_tip5p   1       0.3260   0.3326
  sCK HW_tip4pd   1       0.1700   0.0000
  sCK OW_tip4pd   1       0.3282   0.4063
  sCK   MW   1       0.1700   0.0000
  sCK MCH3   1       0.1700   0.0000
  sCK MNH3   1       0.1700   0.0000
  sCK   c3   1       0.3400   0.2750
  sCK   hc   1       0.3025   0.1042
  sCK    c   1       0.3400   0.2439
  sCK    o   1       0.3180   0.3811
  sCK    n   1       0.3325   0.3428
  sCK   h1   1       0.2936   0.1042
  sCK   ca   1       0.3400   0.2439
  sCK   ha   1       0.3000   0.1018
  sCK   n3   1       0.3325   0.3428
  sCK   hx   1       0.2680   0.1042
  sCK   n4   1       0.3325   0.3428
  sCK   hn   1       0.2234   0.1042
  sCM   Br   1       0.1700   0.0000
  sCM    C   1       0.3400   0.2439
  sCM   C6   1       0.3400   0.2439
  sCM   C5   1       0.3400   0.2439
  sCM   CA   1       0.3400   0.2439
  sCM   CB   1       0.3400   0.2439
  sCM   CC   1       0.3400   0.2439
  sCM   CK   1       0.3400   0.2439
  sCM   CM   1       0.3400   0.2439
  sCM   CN   1       0.3400   0.2439
  sCM   CQ   1       0.3400   0.2439
  sCM   CR   1       0.3400   0.2439
  sCM   CT   1       0.3400   0.2750
  sCM   C1   1       0.3400   0.2750
  sCM   C3   1       0.3400   0.2750
  sCM   C4   1       0.3400   0.2750
  sCM   C7   1       0.3400   0.2750
  sCM   C8   1       0.3400   0.2750
  sCM   C9   1       0.3400   0.2750
  sCM   CV   1       0.3400   0.2439
  sCM   CW   1       0.3400   0.2439
  sCM   C*   1       0.3400   0.2439
  sCM   C0   1       0.3226   0.5638
  sCM    F   1       0.3259   0.2054
  sCM    H   1       0.2234   0.1042
  sCM   HB   1       0.2234   0.1042
  sCM   HC   1       0.3025   0.1042
  sCM   H1   1       0.2936   0.1042
  sCM   H2   1       0.2846   0.1042
  sCM   H3   1       0.2757   0.1042
  sCM   HA   1       0.3000   0.1018
  sCM   H4   1       0.2955   0.1018
  sCM   H5   1       0.2911   0.1018
  sCM   HO   1       0.1700   0.0000
  sCM   HS   1       0.2234   0.1042
  sCM   HW   1       0.1700   0.0000
  sCM   HP   1       0.2680   0.1042
  sCM    I   1       0.3793   0.5259
  sCM   Cl   1       0.3900   0.2630
  sCM   Na   1       0.3364   0.0438
  sCM   IB   1       0.6154   0.2630
  sCM   MG   1       0.2406   0.7865
  sCM    N   1       0.3325   0.3428
  sCM   NA   1       0.3325   0.3428
  sCM   NB   1       0.3325   0.3428
  sCM   NC   1       0.3325   0.3428
  sCM   N2   1       0.3325   0.3428
  sCM   N3   1       0.3325   0.3428
  sCM   N*   1       0.3325   0.3428
  sCM    O   1       0.3180   0.3811
  sCM   OB   1       0.3180   0.3811
  sCM   OW   1       0.3275   0.3243
  sCM   OH   1       0.3233   0.3814
  sCM   O3   1       0.3233   0.3814
  sCM   OS   1       0.3200   0.3428
  sCM   O2   1       0.3180   0.3811
  sCM    P   1       0.3571   0.3719
  sCM    S   1       0.3482   0.4158
  sCM   SH   1       0.3482   0.4158
  sCM   CU   1       0.3400   0.2439
  sCM   FE   1       0.1700   0.0000
  sCM    K   1       0.4068   0.0151
  sCM   Rb   1       0.4333   0.0108
  sCM   Li   1       0.2713   0.1125
  sCM   Zn   1       0.2680   0.0930
  sCM HW_tip4pew   1       0.1700   0.0000
  sCM OW_tip4pew   1       0.3282   0.3355
  sCM HW_tip4p   1       0.1700   0.0000
  sCM OW_tip4p   1       0.3277   0.3274
  sCM HW_tip5p   1       0.1700   0.0000
  sCM OW_tip5p   1       0.3260   0.3326
  sCM HW_tip4pd   1       0.1700   0.0000
  sCM OW_tip4pd   1       0.3282   0.4063
  sCM   MW   1       0.1700   0.0000
  sCM MCH3   1       0.1700   0.0000
  sCM MNH3   1       0.1700   0.0000
  sCM   c3   1       0.3400   0.2750
  sCM   hc   1       0.3025   0.1042
  sCM    c   1       0.3400   0.2439
  sCM    o   1       0.3180   0.3811
  sCM    n   1       0.3325   0.3428
  sCM   h1   1       0.2936   0.1042
  sCM   ca   1       0.3400   0.2439
  sCM   ha   1       0.3000   0.1018
  sCM   n3   1       0.3325   0.3428
  sCM   hx   1       0.2680   0.1042
  sCM   n4   1       0.3325   0.3428
  sCM   hn   1       0.2234   0.1042
  sCN   Br   1       0.1700   0.0000
  sCN    C   1       0.3400   0.2439
  sCN   C6   1       0.3400   0.2439
  sCN   C5   1       0.3400   0.2439
  sCN   CA   1       0.3400   0.2439
  sCN   CB   1       0.3400   0.2439
  sCN   CC   1       0.3400   0.2439
  sCN   CK   1       0.3400   0.2439
  sCN   CM   1       0.3400   0.2439
  sCN   CN   1       0.3400   0.2439
  sCN   CQ   1       0.3400   0.2439
  sCN   CR   1       0.3400   0.2439
  sCN   CT   1       0.3400   0.2750
  sCN   C1   1       0.3400   0.2750
  sCN   C3   1       0.3400   0.2750
  sCN   C4   1       0.3400   0.2750
  sCN   C7   1       0.3400   0.2750
  sCN   C8   1       0.3400   0.2750
  sCN   C9   1       0.3400   0.2750
  sCN   CV   1       0.3400   0.2439
  sCN   CW   1       0.3400   0.2439
  sCN   C*   1       0.3400   0.2439
  sCN   C0   1       0.3226   0.5638
  sCN    F   1       0.3259   0.2054
  sCN    H   1       0.2234   0.1042
  sCN   HB   1       0.2234   0.1042
  sCN   HC   1       0.3025   0.1042
  sCN   H1   1       0.2936   0.1042
  sCN   H2   1       0.2846   0.1042
  sCN   H3   1       0.2757   0.1042
  sCN   HA   1       0.3000   0.1018
  sCN   H4   1       0.2955   0.1018
  sCN   H5   1       0.2911   0.1018
  sCN   HO   1       0.1700   0.0000
  sCN   HS   1       0.2234   0.1042
  sCN   HW   1       0.1700   0.0000
  sCN   HP   1       0.2680   0.1042
  sCN    I   1       0.3793   0.5259
  sCN   Cl   1       0.3900   0.2630
  sCN   Na   1       0.3364   0.0438
  sCN   IB   1       0.6154   0.2630
  sCN   MG   1       0.2406   0.7865
  sCN    N   1       0.3325   0.3428
  sCN   NA   1       0.3325   0.3428
  sCN   NB   1       0.3325   0.3428
  sCN   NC   1       0.3325   0.3428
  sCN   N2   1       0.3325   0.3428
  sCN   N3   1       0.3325   0.3428
  sCN   N*   1       0.3325   0.3428
  sCN    O   1       0.3180   0.3811
  sCN   OB   1       0.3180   0.3811
  sCN   OW   1       0.3275   0.3243
  sCN   OH   1       0.3233   0.3814
  sCN   O3   1       0.3233   0.3814
  sCN   OS   1       0.3200   0.3428
  sCN   O2   1       0.3180   0.3811
  sCN    P   1       0.3571   0.3719
  sCN    S   1       0.3482   0.4158
  sCN   SH   1       0.3482   0.4158
  sCN   CU   1       0.3400   0.2439
  sCN   FE   1       0.1700   0.0000
  sCN    K   1       0.4068   0.0151
  sCN   Rb   1       0.4333   0.0108
  sCN   Li   1       0.2713   0.1125
  sCN   Zn   1       0.2680   0.0930
  sCN HW_tip4pew   1       0.1700   0.0000
  sCN OW_tip4pew   1       0.3282   0.3355
  sCN HW_tip4p   1       0.1700   0.0000
  sCN OW_tip4p   1       0.3277   0.3274
  sCN HW_tip5p   1       0.1700   0.0000
  sCN OW_tip5p   1       0.3260   0.3326
  sCN HW_tip4pd   1       0.1700   0.0000
  sCN OW_tip4pd   1       0.3282   0.4063
  sCN   MW   1       0.1700   0.0000
  sCN MCH3   1       0.1700   0.0000
  sCN MNH3   1       0.1700   0.0000
  sCN   c3   1       0.3400   0.2750
  sCN   hc   1       0.3025   0.1042
  sCN    c   1       0.3400   0.2439
  sCN    o   1       0.3180   0.3811
  sCN    n   1       0.3325   0.3428
  sCN   h1   1       0.2936   0.1042
  sCN   ca   1       0.3400   0.2439
  sCN   ha   1       0.3000   0.1018
  sCN   n3   1       0.3325   0.3428
  sCN   hx   1       0.2680   0.1042
  sCN   n4   1       0.3325   0.3428
  sCN   hn   1       0.2234   0.1042
  sCQ   Br   1       0.1700   0.0000
  sCQ    C   1       0.3400   0.2439
  sCQ   C6   1       0.3400   0.2439
  sCQ   C5   1       0.3400   0.2439
  sCQ   CA   1       0.3400   0.2439
  sCQ   CB   1       0.3400   0.2439
  sCQ   CC   1       0.3400   0.2439
  sCQ   CK   1       0.3400   0.2439
  sCQ   CM   1       0.3400   0.2439
  sCQ   CN   1       0.3400   0.2439
  sCQ   CQ   1       0.3400   0.2439
  sCQ   CR   1       0.3400   0.2439
  sCQ   CT   1       0.3400   0.2750
  sCQ   C1   1       0.3400   0.2750
  sCQ   C3   1       0.3400   0.2750
  sCQ   C4   1       0.3400   0.2750
  sCQ   C7   1       0.3400   0.2750
  sCQ   C8   1       0.3400   0.2750
  sCQ   C9   1       0.3400   0.2750
  sCQ   CV   1       0.3400   0.2439
  sCQ   CW   1       0.3400   0.2439
  sCQ   C*   1       0.3400   0.2439
  sCQ   C0   1       0.3226   0.5638
  sCQ    F   1       0.3259   0.2054
  sCQ    H   1       0.2234   0.1042
  sCQ   HB   1       0.2234   0.1042
  sCQ   HC   1       0.3025   0.1042
  sCQ   H1   1       0.2936   0.1042
  sCQ   H2   1       0.2846   0.1042
  sCQ   H3   1       0.2757   0.1042
  sCQ   HA   1       0.3000   0.1018
  sCQ   H4   1       0.2955   0.1018
  sCQ   H5   1       0.2911   0.1018
  sCQ   HO   1       0.1700   0.0000
  sCQ   HS   1       0.2234   0.1042
  sCQ   HW   1       0.1700   0.0000
  sCQ   HP   1       0.2680   0.1042
  sCQ    I   1       0.3793   0.5259
  sCQ   Cl   1       0.3900   0.2630
  sCQ   Na   1       0.3364   0.0438
  sCQ   IB   1       0.6154   0.2630
  sCQ   MG   1       0.2406   0.7865
  sCQ    N   1       0.3325   0.3428
  sCQ   NA   1       0.3325   0.3428
  sCQ   NB   1       0.3325   0.3428
  sCQ   NC   1       0.3325   0.3428
  sCQ   N2   1       0.3325   0.3428
  sCQ   N3   1       0.3325   0.3428
  sCQ   N*   1       0.3325   0.3428
  sCQ    O   1       0.3180   0.3811
  sCQ   OB   1       0.3180   0.3811
  sCQ   OW   1       0.3275   0.3243
  sCQ   OH   1       0.3233   0.3814
  sCQ   O3   1       0.3233   0.3814
  sCQ   OS   1       0.3200   0.3428
  sCQ   O2   1       0.3180   0.3811
  sCQ    P   1       0.3571   0.3719
  sCQ    S   1       0.3482   0.4158
  sCQ   SH   1       0.3482   0.4158
  sCQ   CU   1       0.3400   0.2439
  sCQ   FE   1       0.1700   0.0000
  sCQ    K   1       0.4068   0.0151
  sCQ   Rb   1       0.4333   0.0108
  sCQ   Li   1       0.2713   0.1125
  sCQ   Zn   1       0.2680   0.0930
  sCQ HW_tip4pew   1       0.1700   0.0000
  sCQ OW_tip4pew   1       0.3282   0.3355
  sCQ HW_tip4p   1       0.1700   0.0000
  sCQ OW_tip4p   1       0.3277   0.3274
  sCQ HW_tip5p   1       0.1700   0.0000
  sCQ OW_tip5p   1       0.3260   0.3326
  sCQ HW_tip4pd   1       0.1700   0.0000
  sCQ OW_tip4pd   1       0.3282   0.4063
  sCQ   MW   1       0.1700   0.0000
  sCQ MCH3   1       0.1700   0.0000
  sCQ MNH3   1       0.1700   0.0000
  sCQ   c3   1       0.3400   0.2750
  sCQ   hc   1       0.3025   0.1042
  sCQ    c   1       0.3400   0.2439
  sCQ    o   1       0.3180   0.3811
  sCQ    n   1       0.3325   0.3428
  sCQ   h1   1       0.2936   0.1042
  sCQ   ca   1       0.3400   0.2439
  sCQ   ha   1       0.3000   0.1018
  sCQ   n3   1       0.3325   0.3428
  sCQ   hx   1       0.2680   0.1042
  sCQ   n4   1       0.3325   0.3428
  sCQ   hn   1       0.2234   0.1042
  sCR   Br   1       0.1700   0.0000
  sCR    C   1       0.3400   0.2439
  sCR   C6   1       0.3400   0.2439
  sCR   C5   1       0.3400   0.2439
  sCR   CA   1       0.3400   0.2439
  sCR   CB   1       0.3400   0.2439
  sCR   CC   1       0.3400   0.2439
  sCR   CK   1       0.3400   0.2439
  sCR   CM   1       0.3400   0.2439
  sCR   CN   1       0.3400   0.2439
  sCR   CQ   1       0.3400   0.2439
  sCR   CR   1       0.3400   0.2439
  sCR   CT   1       0.3400   0.2750
  sCR   C1   1       0.3400   0.2750
  sCR   C3   1       0.3400   0.2750
  sCR   C4   1       0.3400   0.2750
  sCR   C7   1       0.3400   0.2750
  sCR   C8   1       0.3400   0.2750
  sCR   C9   1       0.3400   0.2750
  sCR   CV   1       0.3400   0.2439
  sCR   CW   1       0.3400   0.2439
  sCR   C*   1       0.3400   0.2439
  sCR   C0   1       0.3226   0.5638
  sCR    F   1       0.3259   0.2054
  sCR    H   1       0.2234   0.1042
  sCR   HB   1       0.2234   0.1042
  sCR   HC   1       0.3025   0.1042
  sCR   H1   1       0.2936   0.1042
  sCR   H2   1       0.2846   0.1042
  sCR   H3   1       0.2757   0.1042
  sCR   HA   1       0.3000   0.1018
  sCR   H4   1       0.2955   0.1018
  sCR   H5   1       0.2911   0.1018
  sCR   HO   1       0.1700   0.0000
  sCR   HS   1       0.2234   0.1042
  sCR   HW   1       0.1700   0.0000
  sCR   HP   1       0.2680   0.1042
  sCR    I   1       0.3793   0.5259
  sCR   Cl   1       0.3900   0.2630
  sCR   Na   1       0.3364   0.0438
  sCR   IB   1       0.6154   0.2630
  sCR   MG   1       0.2406   0.7865
  sCR    N   1       0.3325   0.3428
  sCR   NA   1       0.3325   0.3428
  sCR   NB   1       0.3325   0.3428
  sCR   NC   1       0.3325   0.3428
  sCR   N2   1       0.3325   0.3428
  sCR   N3   1       0.3325   0.3428
  sCR   N*   1       0.3325   0.3428
  sCR    O   1       0.3180   0.3811
  sCR   OB   1       0.3180   0.3811
  sCR   OW   1       0.3275   0.3243
  sCR   OH   1       0.3233   0.3814
  sCR   O3   1       0.3233   0.3814
  sCR   OS   1       0.3200   0.3428
  sCR   O2   1       0.3180   0.3811
  sCR    P   1       0.3571   0.3719
  sCR    S   1       0.3482   0.4158
  sCR   SH   1       0.3482   0.4158
  sCR   CU   1       0.3400   0.2439
  sCR   FE   1       0.1700   0.0000
  sCR    K   1       0.4068   0.0151
  sCR   Rb   1       0.4333   0.0108
  sCR   Li   1       0.2713   0.1125
  sCR   Zn   1       0.2680   0.0930
  sCR HW_tip4pew   1       0.1700   0.0000
  sCR OW_tip4pew   1       0.3282   0.3355
  sCR HW_tip4p   1       0.1700   0.0000
  sCR OW_tip4p   1       0.3277   0.3274
  sCR HW_tip5p   1       0.1700   0.0000
  sCR OW_tip5p   1       0.3260   0.3326
  sCR HW_tip4pd   1       0.1700   0.0000
  sCR OW_tip4pd   1       0.3282   0.4063
  sCR   MW   1       0.1700   0.0000
  sCR MCH3   1       0.1700   0.0000
  sCR MNH3   1       0.1700   0.0000
  sCR   c3   1       0.3400   0.2750
  sCR   hc   1       0.3025   0.1042
  sCR    c   1       0.3400   0.2439
  sCR    o   1       0.3180   0.3811
  sCR    n   1       0.3325   0.3428
  sCR   h1   1       0.2936   0.1042
  sCR   ca   1       0.3400   0.2439
  sCR   ha   1       0.3000   0.1018
  sCR   n3   1       0.3325   0.3428
  sCR   hx   1       0.2680   0.1042
  sCR   n4   1       0.3325   0.3428
  sCR   hn   1       0.2234   0.1042
  sCT   Br   1       0.1700   0.0000
  sCT    C   1       0.3400   0.2750
  sCT   C6   1       0.3400   0.2750
  sCT   C5   1       0.3400   0.2750
  sCT   CA   1       0.3400   0.2750
  sCT   CB   1       0.3400   0.2750
  sCT   CC   1       0.3400   0.2750
  sCT   CK   1       0.3400   0.2750
  sCT   CM   1       0.3400   0.2750
  sCT   CN   1       0.3400   0.2750
  sCT   CQ   1       0.3400   0.2750
  sCT   CR   1       0.3400   0.2750
  sCT   CT   1       0.3400   0.3102
  sCT   C1   1       0.3400   0.3102
  sCT   C3   1       0.3400   0.3102
  sCT   C4   1       0.3400   0.3102
  sCT   C7   1       0.3400   0.3102
  sCT   C8   1       0.3400   0.3102
  sCT   C9   1       0.3400   0.3102
  sCT   CV   1       0.3400   0.2750
  sCT   CW   1       0.3400   0.2750
  sCT   C*   1       0.3400   0.2750
  sCT   C0   1       0.3226   0.6359
  sCT    F   1       0.3259   0.2316
  sCT    H   1       0.2234   0.1175
  sCT   HB   1       0.2234   0.1175
  sCT   HC   1       0.3025   0.1175
  sCT   H1   1       0.2936   0.1175
  sCT   H2   1       0.2846   0.1175
  sCT   H3   1       0.2757   0.1175
  sCT   HA   1       0.3000   0.1149
  sCT   H4   1       0.2955   0.1149
  sCT   H5   1       0.2911   0.1149
  sCT   HO   1       0.1700   0.0000
  sCT   HS   1       0.2234   0.1175
  sCT   HW   1       0.1700   0.0000
  sCT   HP   1       0.2680   0.1175
  sCT    I   1       0.3793   0.5931
  sCT   Cl   1       0.3900   0.2966
  sCT   Na   1       0.3364   0.0494
  sCT   IB   1       0.6154   0.2966
  sCT   MG   1       0.2406   0.8871
  sCT    N   1       0.3325   0.3867
  sCT   NA   1       0.3325   0.3867
  sCT   NB   1       0.3325   0.3867
  sCT   NC   1       0.3325   0.3867
  sCT   N2   1       0.3325   0.3867
  sCT   N3   1       0.3325   0.3867
  sCT   N*   1       0.3325   0.3867
  sCT    O   1       0.3180   0.4298
  sCT   OB   1       0.3180   0.4298
  sCT   OW   1       0.3275   0.3658
  sCT   OH   1       0.3233   0.4302
  sCT   O3   1       0.3233   0.4302
  sCT   OS   1       0.3200   0.3867
  sCT   O2   1       0.3180   0.4298
  sCT    P   1       0.3571   0.4194
  sCT    S   1       0.3482   0.4689
  sCT   SH   1       0.3482   0.4689
  sCT   CU   1       0.3400   0.2750
  sCT   FE   1       0.1700   0.0000
  sCT    K   1       0.4068   0.0170
  sCT   Rb   1       0.4333   0.0122
  sCT   Li   1       0.2713   0.1269
  sCT   Zn   1       0.2680   0.1049
  sCT HW_tip4pew   1       0.1700   0.0000
  sCT OW_tip4pew   1       0.3282   0.3784
  sCT HW_tip4p   1       0.1700   0.0000
  sCT OW_tip4p   1       0.3277   0.3692
  sCT HW_tip5p   1       0.1700   0.0000
  sCT OW_tip5p   1       0.3260   0.3751
  sCT HW_tip4pd   1       0.1700   0.0000
  sCT OW_tip4pd   1       0.3282   0.4583
  sCT   MW   1       0.1700   0.0000
  sCT MCH3   1       0.1700   0.0000
  sCT MNH3   1       0.1700   0.0000
  sCT   c3   1       0.3400   0.3102
  sCT   hc   1       0.3025   0.1175
  sCT    c   1       0.3400   0.2750
  sCT    o   1       0.3180   0.4298
  sCT    n   1       0.3325   0.3867
  sCT   h1   1       0.2936   0.1175
  sCT   ca   1       0.3400   0.2750
  sCT   ha   1       0.3000   0.1149
  sCT   n3   1       0.3325   0.3867
  sCT   hx   1       0.2680   0.1175
  sCT   n4   1       0.3325   0.3867
  sCT   hn   1       0.2234   0.1175
  sC1   Br   1       0.1700   0.0000
  sC1    C   1       0.3400   0.2750
  sC1   C6   1       0.3400   0.2750
  sC1   C5   1       0.3400   0.2750
  sC1   CA   1       0.3400   0.2750
  sC1   CB   1       0.3400   0.2750
  sC1   CC   1       0.3400   0.2750
  sC1   CK   1       0.3400   0.2750
  sC1   CM   1       0.3400   0.2750
  sC1   CN   1       0.3400   0.2750
  sC1   CQ   1       0.3400   0.2750
  sC1   CR   1       0.3400   0.2750
  sC1   CT   1       0.3400   0.3102
  sC1   C1   1       0.3400   0.3102
  sC1   C3   1       0.3400   0.3102
  sC1   C4   1       0.3400   0.3102
  sC1   C7   1       0.3400   0.3102
  sC1   C8   1       0.3400   0.3102
  sC1   C9   1       0.3400   0.3102
  sC1   CV   1       0.3400   0.2750
  sC1   CW   1       0.3400   0.2750
  sC1   C*   1       0.3400   0.2750
  sC1   C0   1       0.3226   0.6359
  sC1    F   1       0.3259   0.2316
  sC1    H   1       0.2234   0.1175
  sC1   HB   1       0.2234   0.1175
  sC1   HC   1       0.3025   0.1175
  sC1   H1   1       0.2936   0.1175
  sC1   H2   1       0.2846   0.1175
  sC1   H3   1       0.2757   0.1175
  sC1   HA   1       0.3000   0.1149
  sC1   H4   1       0.2955   0.1149
  sC1   H5   1       0.2911   0.1149
  sC1   HO   1       0.1700   0.0000
  sC1   HS   1       0.2234   0.1175
  sC1   HW   1       0.1700   0.0000
  sC1   HP   1       0.2680   0.1175
  sC1    I   1       0.3793   0.5931
  sC1   Cl   1       0.3900   0.2966
  sC1   Na   1       0.3364   0.0494
  sC1   IB   1       0.6154   0.2966
  sC1   MG   1       0.2406   0.8871
  sC1    N   1       0.3325   0.3867
  sC1   NA   1       0.3325   0.3867
  sC1   NB   1       0.3325   0.3867
  sC1   NC   1       0.3325   0.3867
  sC1   N2   1       0.3325   0.3867
  sC1   N3   1       0.3325   0.3867
  sC1   N*   1       0.3325   0.3867
  sC1    O   1       0.3180   0.4298
  sC1   OB   1       0.3180   0.4298
  sC1   OW   1       0.3275   0.3658
  sC1   OH   1       0.3233   0.4302
  sC1   O3   1       0.3233   0.4302
  sC1   OS   1       0.3200   0.3867
  sC1   O2   1       0.3180   0.4298
  sC1    P   1       0.3571   0.4194
  sC1    S   1       0.3482   0.4689
  sC1   SH   1       0.3482   0.4689
  sC1   CU   1       0.3400   0.2750
  sC1   FE   1       0.1700   0.0000
  sC1    K   1       0.4068   0.0170
  sC1   Rb   1       0.4333   0.0122
  sC1   Li   1       0.2713   0.1269
  sC1   Zn   1       0.2680   0.1049
  sC1 HW_tip4pew   1       0.1700   0.0000
  sC1 OW_tip4pew   1       0.3282   0.3784
  sC1 HW_tip4p   1       0.1700   0.0000
  sC1 OW_tip4p   1       0.3277   0.3692
  sC1 HW_tip5p   1       0.1700   0.0000
  sC1 OW_tip5p   1       0.3260   0.3751
  sC1 HW_tip4pd   1       0.1700   0.0000
  sC1 OW_tip4pd   1       0.3282   0.4583
  sC1   MW   1       0.1700   0.0000
  sC1 MCH3   1       0.1700   0.0000
  sC1 MNH3   1       0.1700   0.0000
  sC1   c3   1       0.3400   0.3102
  sC1   hc   1       0.3025   0.1175
  sC1    c   1       0.3400   0.2750
  sC1    o   1       0.3180   0.4298
  sC1    n   1       0.3325   0.3867
  sC1   h1   1       0.2936   0.1175
  sC1   ca   1       0.3400   0.2750
  sC1   ha   1       0.3000   0.1149
  sC1   n3   1       0.3325   0.3867
  sC1   hx   1       0.2680   0.1175
  sC1   n4   1       0.3325   0.3867
  sC1   hn   1       0.2234   0.1175
  sC3   Br   1       0.1700   0.0000
  sC3    C   1       0.3400   0.2750
  sC3   C6   1       0.3400   0.2750
  sC3   C5   1       0.3400   0.2750
  sC3   CA   1       0.3400   0.2750
  sC3   CB   1       0.3400   0.2750
  sC3   CC   1       0.3400   0.2750
  sC3   CK   1       0.3400   0.2750
  sC3   CM   1       0.3400   0.2750
  sC3   CN   1       0.3400   0.2750
  sC3   CQ   1       0.3400   0.2750
  sC3   CR   1       0.3400   0.2750
  sC3   CT   1       0.3400   0.3102
  sC3   C1   1       0.3400   0.3102
  sC3   C3   1       0.3400   0.3102
  sC3   C4   1       0.3400   0.3102
  sC3   C7   1       0.3400   0.3102
  sC3   C8   1       0.3400   0.3102
  sC3   C9   1       0.3400   0.3102
  sC3   CV   1       0.3400   0.2750
  sC3   CW   1       0.3400   0.2750
  sC3   C*   1       0.3400   0.2750
  sC3   C0   1       0.3226   0.6359
  sC3    F   1       0.3259   0.2316
  sC3    H   1       0.2234   0.1175
  sC3   HB   1       0.2234   0.1175
  sC3   HC   1       0.3025   0.1175
  sC3   H1   1       0.2936   0.1175
  sC3   H2   1       0.2846   0.1175
  sC3   H3   1       0.2757   0.1175
  sC3   HA   1       0.3000   0.1149
  sC3   H4   1       0.2955   0.1149
  sC3   H5   1       0.2911   0.1149
  sC3   HO   1       0.1700   0.0000
  sC3   HS   1       0.2234   0.1175
  sC3   HW   1       0.1700   0.0000
  sC3   HP   1       0.2680   0.1175
  sC3    I   1       0.3793   0.5931
  sC3   Cl   1       0.3900   0.2966
  sC3   Na   1       0.3364   0.0494
  sC3   IB   1       0.6154   0.2966
  sC3   MG   1       0.2406   0.8871
  sC3    N   1       0.3325   0.3867
  sC3   NA   1       0.3325   0.3867
  sC3   NB   1       0.3325   0.3867
  sC3   NC   1       0.3325   0.3867
  sC3   N2   1       0.3325   0.3867
  sC3   N3   1       0.3325   0.3867
  sC3   N*   1       0.3325   0.3867
  sC3    O   1       0.3180   0.4298
  sC3   OB   1       0.3180   0.4298
  sC3   OW   1       0.3275   0.3658
  sC3   OH   1       0.3233   0.4302
  sC3   O3   1       0.3233   0.4302
  sC3   OS   1       0.3200   0.3867
  sC3   O2   1       0.3180   0.4298
  sC3    P   1       0.3571   0.4194
  sC3    S   1       0.3482   0.4689
  sC3   SH   1       0.3482   0.4689
  sC3   CU   1       0.3400   0.2750
  sC3   FE   1       0.1700   0.0000
  sC3    K   1       0.4068   0.0170
  sC3   Rb   1       0.4333   0.0122
  sC3   Li   1       0.2713   0.1269
  sC3   Zn   1       0.2680   0.1049
  sC3 HW_tip4pew   1       0.1700   0.0000
  sC3 OW_tip4pew   1       0.3282   0.3784
  sC3 HW_tip4p   1       0.1700   0.0000
  sC3 OW_tip4p   1       0.3277   0.3692
  sC3 HW_tip5p   1       0.1700   0.0000
  sC3 OW_tip5p   1       0.3260   0.3751
  sC3 HW_tip4pd   1       0.1700   0.0000
  sC3 OW_tip4pd   1       0.3282   0.4583
  sC3   MW   1       0.1700   0.0000
  sC3 MCH3   1       0.1700   0.0000
  sC3 MNH3   1       0.1700   0.0000
  sC3   c3   1       0.3400   0.3102
  sC3   hc   1       0.3025   0.1175
  sC3    c   1       0.3400   0.2750
  sC3    o   1       0.3180   0.4298
  sC3    n   1       0.3325   0.3867
  sC3   h1   1       0.2936   0.1175
  sC3   ca   1       0.3400   0.2750
  sC3   ha   1       0.3000   0.1149
  sC3   n3   1       0.3325   0.3867
  sC3   hx   1       0.2680   0.1175
  sC3   n4   1       0.3325   0.3867
  sC3   hn   1       0.2234   0.1175
  sC4   Br   1       0.1700   0.0000
  sC4    C   1       0.3400   0.2750
  sC4   C6   1       0.3400   0.2750
  sC4   C5   1       0.3400   0.2750
  sC4   CA   1       0.3400   0.2750
  sC4   CB   1       0.3400   0.2750
  sC4   CC   1       0.3400   0.2750
  sC4   CK   1       0.3400   0.2750
  sC4   CM   1       0.3400   0.2750
  sC4   CN   1       0.3400   0.2750
  sC4   CQ   1       0.3400   0.2750
  sC4   CR   1       0.3400   0.2750
  sC4   CT   1       0.3400   0.3102
  sC4   C1   1       0.3400   0.3102
  sC4   C3   1       0.3400   0.3102
  sC4   C4   1       0.3400   0.3102
  sC4   C7   1       0.3400   0.3102
  sC4   C8   1       0.3400   0.3102
  sC4   C9   1       0.3400   0.3102
  sC4   CV   1       0.3400   0.2750
  sC4   CW   1       0.3400   0.2750
  sC4   C*   1       0.3400   0.2750
  sC4   C0   1       0.3226   0.6359
  sC4    F   1       0.3259   0.2316
  sC4    H   1       0.2234   0.1175
  sC4   HB   1       0.2234   0.1175
  sC4   HC   1       0.3025   0.1175
  sC4   H1   1       0.2936   0.1175
  sC4   H2   1       0.2846   0.1175
  sC4   H3   1       0.2757   0.1175
  sC4   HA   1       0.3000   0.1149
  sC4   H4   1       0.2955   0.1149
  sC4   H5   1       0.2911   0.1149
  sC4   HO   1       0.1700   0.0000
  sC4   HS   1       0.2234   0.1175
  sC4   HW   1       0.1700   0.0000
  sC4   HP   1       0.2680   0.1175
  sC4    I   1       0.3793   0.5931
  sC4   Cl   1       0.3900   0.2966
  sC4   Na   1       0.3364   0.0494
  sC4   IB   1       0.6154   0.2966
  sC4   MG   1       0.2406   0.8871
  sC4    N   1       0.3325   0.3867
  sC4   NA   1       0.3325   0.3867
  sC4   NB   1       0.3325   0.3867
  sC4   NC   1       0.3325   0.3867
  sC4   N2   1       0.3325   0.3867
  sC4   N3   1       0.3325   0.3867
  sC4   N*   1       0.3325   0.3867
  sC4    O   1       0.3180   0.4298
  sC4   OB   1       0.3180   0.4298
  sC4   OW   1       0.3275   0.3658
  sC4   OH   1       0.3233   0.4302
  sC4   O3   1       0.3233   0.4302
  sC4   OS   1       0.3200   0.3867
  sC4   O2   1       0.3180   0.4298
  sC4    P   1       0.3571   0.4194
  sC4    S   1       0.3482   0.4689
  sC4   SH   1       0.3482   0.4689
  sC4   CU   1       0.3400   0.2750
  sC4   FE   1       0.1700   0.0000
  sC4    K   1       0.4068   0.0170
  sC4   Rb   1       0.4333   0.0122
  sC4   Li   1       0.2713   0.1269
  sC4   Zn   1       0.2680   0.1049
  sC4 HW_tip4pew   1       0.1700   0.0000
  sC4 OW_tip4pew   1       0.3282   0.3784
  sC4 HW_tip4p   1       0.1700   0.0000
  sC4 OW_tip4p   1       0.3277   0.3692
  sC4 HW_tip5p   1       0.1700   0.0000
  sC4 OW_tip5p   1       0.3260   0.3751
  sC4 HW_tip4pd   1       0.1700   0.0000
  sC4 OW_tip4pd   1       0.3282   0.4583
  sC4   MW   1       0.1700   0.0000
  sC4 MCH3   1       0.1700   0.0000
  sC4 MNH3   1       0.1700   0.0000
  sC4   c3   1       0.3400   0.3102
  sC4   hc   1       0.3025   0.1175
  sC4    c   1       0.3400   0.2750
  sC4    o   1       0.3180   0.4298
  sC4    n   1       0.3325   0.3867
  sC4   h1   1       0.2936   0.1175
  sC4   ca   1       0.3400   0.2750
  sC4   ha   1       0.3000   0.1149
  sC4   n3   1       0.3325   0.3867
  sC4   hx   1       0.2680   0.1175
  sC4   n4   1       0.3325   0.3867
  sC4   hn   1       0.2234   0.1175
  sC7   Br   1       0.1700   0.0000
  sC7    C   1       0.3400   0.2750
  sC7   C6   1       0.3400   0.2750
  sC7   C5   1       0.3400   0.2750
  sC7   CA   1       0.3400   0.2750
  sC7   CB   1       0.3400   0.2750
  sC7   CC   1       0.3400   0.2750
  sC7   CK   1       0.3400   0.2750
  sC7   CM   1       0.3400   0.2750
  sC7   CN   1       0.3400   0.2750
  sC7   CQ   1       0.3400   0.2750
  sC7   CR   1       0.3400   0.2750
  sC7   CT   1       0.3400   0.3102
  sC7   C1   1       0.3400   0.3102
  sC7   C3   1       0.3400   0.3102
  sC7   C4   1       0.3400   0.3102
  sC7   C7   1       0.3400   0.3102
  sC7   C8   1       0.3400   0.3102
  sC7   C9   1       0.3400   0.3102
  sC7   CV   1       0.3400   0.2750
  sC7   CW   1       0.3400   0.2750
  sC7   C*   1       0.3400   0.2750
  sC7   C0   1       0.3226   0.6359
  sC7    F   1       0.3259   0.2316
  sC7    H   1       0.2234   0.1175
  sC7   HB   1       0.2234   0.1175
  sC7   HC   1       0.3025   0.1175
  sC7   H1   1       0.2936   0.1175
  sC7   H2   1       0.2846   0.1175
  sC7   H3   1       0.2757   0.1175
  sC7   HA   1       0.3000   0.1149
  sC7   H4   1       0.2955   0.1149
  sC7   H5   1       0.2911   0.1149
  sC7   HO   1       0.1700   0.0000
  sC7   HS   1       0.2234   0.1175
  sC7   HW   1       0.1700   0.0000
  sC7   HP   1       0.2680   0.1175
  sC7    I   1       0.3793   0.5931
  sC7   Cl   1       0.3900   0.2966
  sC7   Na   1       0.3364   0.0494
  sC7   IB   1       0.6154   0.2966
  sC7   MG   1       0.2406   0.8871
  sC7    N   1       0.3325   0.3867
  sC7   NA   1       0.3325   0.3867
  sC7   NB   1       0.3325   0.3867
  sC7   NC   1       0.3325   0.3867
  sC7   N2   1       0.3325   0.3867
  sC7   N3   1       0.3325   0.3867
  sC7   N*   1       0.3325   0.3867
  sC7    O   1       0.3180   0.4298
  sC7   OB   1       0.3180   0.4298
  sC7   OW   1       0.3275   0.3658
  sC7   OH   1       0.3233   0.4302
  sC7   O3   1       0.3233   0.4302
  sC7   OS   1       0.3200   0.3867
  sC7   O2   1       0.3180   0.4298
  sC7    P   1       0.3571   0.4194
  sC7    S   1       0.3482   0.4689
  sC7   SH   1       0.3482   0.4689
  sC7   CU   1       0.3400   0.2750
  sC7   FE   1       0.1700   0.0000
  sC7    K   1       0.4068   0.0170
  sC7   Rb   1       0.4333   0.0122
  sC7   Li   1       0.2713   0.1269
  sC7   Zn   1       0.2680   0.1049
  sC7 HW_tip4pew   1       0.1700   0.0000
  sC7 OW_tip4pew   1       0.3282   0.3784
  sC7 HW_tip4p   1       0.1700   0.0000
  sC7 OW_tip4p   1       0.3277   0.3692
  sC7 HW_tip5p   1       0.1700   0.0000
  sC7 OW_tip5p   1       0.3260   0.3751
  sC7 HW_tip4pd   1       0.1700   0.0000
  sC7 OW_tip4pd   1       0.3282   0.4583
  sC7   MW   1       0.1700   0.0000
  sC7 MCH3   1       0.1700   0.0000
  sC7 MNH3   1       0.1700   0.0000
  sC7   c3   1       0.3400   0.3102
  sC7   hc   1       0.3025   0.1175
  sC7    c   1       0.3400   0.2750
  sC7    o   1       0.3180   0.4298
  sC7    n   1       0.3325   0.3867
  sC7   h1   1       0.2936   0.1175
  sC7   ca   1       0.3400   0.2750
  sC7   ha   1       0.3000   0.1149
  sC7   n3   1       0.3325   0.3867
  sC7   hx   1       0.2680   0.1175
  sC7   n4   1       0.3325   0.3867
  sC7   hn   1       0.2234   0.1175
  sC8   Br   1       0.1700   0.0000
  sC8    C   1       0.3400   0.2750
  sC8   C6   1       0.3400   0.2750
  sC8   C5   1       0.3400   0.2750
  sC8   CA   1       0.3400   0.2750
  sC8   CB   1       0.3400   0.2750
  sC8   CC   1       0.3400   0.2750
  sC8   CK   1       0.3400   0.2750
  sC8   CM   1       0.3400   0.2750
  sC8   CN   1       0.3400   0.2750
  sC8   CQ   1       0.3400   0.2750
  sC8   CR   1       0.3400   0.2750
  sC8   CT   1       0.3400   0.3102
  sC8   C1   1       0.3400   0.3102
  sC8   C3   1       0.3400   0.3102
  sC8   C4   1       0.3400   0.3102
  sC8   C7   1       0.3400   0.3102
  sC8   C8   1       0.3400   0.3102
  sC8   C9   1       0.3400   0.3102
  sC8   CV   1       0.3400   0.2750
  sC8   CW   1       0.3400   0.2750
  sC8   C*   1       0.3400   0.2750
  sC8   C0   1       0.3226   0.6359
  sC8    F   1       0.3259   0.2316
  sC8    H   1       0.2234   0.1175
  sC8   HB   1       0.2234   0.1175
  sC8   HC   1       0.3025   0.1175
  sC8   H1   1       0.2936   0.1175
  sC8   H2   1       0.2846   0.1175
  sC8   H3   1       0.2757   0.1175
  sC8   HA   1       0.3000   0.1149
  sC8   H4   1       0.2955   0.1149
  sC8   H5   1       0.2911   0.1149
  sC8   HO   1       0.1700   0.0000
  sC8   HS   1       0.2234   0.1175
  sC8   HW   1       0.1700   0.0000
  sC8   HP   1       0.2680   0.1175
  sC8    I   1       0.3793   0.5931
  sC8   Cl   1       0.3900   0.2966
  sC8   Na   1       0.3364   0.0494
  sC8   IB   1       0.6154   0.2966
  sC8   MG   1       0.2406   0.8871
  sC8    N   1       0.3325   0.3867
  sC8   NA   1       0.3325   0.3867
  sC8   NB   1       0.3325   0.3867
  sC8   NC   1       0.3325   0.3867
  sC8   N2   1       0.3325   0.3867
  sC8   N3   1       0.3325   0.3867
  sC8   N*   1       0.3325   0.3867
  sC8    O   1       0.3180   0.4298
  sC8   OB   1       0.3180   0.4298
  sC8   OW   1       0.3275   0.3658
  sC8   OH   1       0.3233   0.4302
  sC8   O3   1       0.3233   0.4302
  sC8   OS   1       0.3200   0.3867
  sC8   O2   1       0.3180   0.4298
  sC8    P   1       0.3571   0.4194
  sC8    S   1       0.3482   0.4689
  sC8   SH   1       0.3482   0.4689
  sC8   CU   1       0.3400   0.2750
  sC8   FE   1       0.1700   0.0000
  sC8    K   1       0.4068   0.0170
  sC8   Rb   1       0.4333   0.0122
  sC8   Li   1       0.2713   0.1269
  sC8   Zn   1       0.2680   0.1049
  sC8 HW_tip4pew   1       0.1700   0.0000
  sC8 OW_tip4pew   1       0.3282   0.3784
  sC8 HW_tip4p   1       0.1700   0.0000
  sC8 OW_tip4p   1       0.3277   0.3692
  sC8 HW_tip5p   1       0.1700   0.0000
  sC8 OW_tip5p   1       0.3260   0.3751
  sC8 HW_tip4pd   1       0.1700   0.0000
  sC8 OW_tip4pd   1       0.3282   0.4583
  sC8   MW   1       0.1700   0.0000
  sC8 MCH3   1       0.1700   0.0000
  sC8 MNH3   1       0.1700   0.0000
  sC8   c3   1       0.3400   0.3102
  sC8   hc   1       0.3025   0.1175
  sC8    c   1       0.3400   0.2750
  sC8    o   1       0.3180   0.4298
  sC8    n   1       0.3325   0.3867
  sC8   h1   1       0.2936   0.1175
  sC8   ca   1       0.3400   0.2750
  sC8   ha   1       0.3000   0.1149
  sC8   n3   1       0.3325   0.3867
  sC8   hx   1       0.2680   0.1175
  sC8   n4   1       0.3325   0.3867
  sC8   hn   1       0.2234   0.1175
  sC9   Br   1       0.1700   0.0000
  sC9    C   1       0.3400   0.2750
  sC9   C6   1       0.3400   0.2750
  sC9   C5   1       0.3400   0.2750
  sC9   CA   1       0.3400   0.2750
  sC9   CB   1       0.3400   0.2750
  sC9   CC   1       0.3400   0.2750
  sC9   CK   1       0.3400   0.2750
  sC9   CM   1       0.3400   0.2750
  sC9   CN   1       0.3400   0.2750
  sC9   CQ   1       0.3400   0.2750
  sC9   CR   1       0.3400   0.2750
  sC9   CT   1       0.3400   0.3102
  sC9   C1   1       0.3400   0.3102
  sC9   C3   1       0.3400   0.3102
  sC9   C4   1       0.3400   0.3102
  sC9   C7   1       0.3400   0.3102
  sC9   C8   1       0.3400   0.3102
  sC9   C9   1       0.3400   0.3102
  sC9   CV   1       0.3400   0.2750
  sC9   CW   1       0.3400   0.2750
  sC9   C*   1       0.3400   0.2750
  sC9   C0   1       0.3226   0.6359
  sC9    F   1       0.3259   0.2316
  sC9    H   1       0.2234   0.1175
  sC9   HB   1       0.2234   0.1175
  sC9   HC   1       0.3025   0.1175
  sC9   H1   1       0.2936   0.1175
  sC9   H2   1       0.2846   0.1175
  sC9   H3   1       0.2757   0.1175
  sC9   HA   1       0.3000   0.1149
  sC9   H4   1       0.2955   0.1149
  sC9   H5   1       0.2911   0.1149
  sC9   HO   1       0.1700   0.0000
  sC9   HS   1       0.2234   0.1175
  sC9   HW   1       0.1700   0.0000
  sC9   HP   1       0.2680   0.1175
  sC9    I   1       0.3793   0.5931
  sC9   Cl   1       0.3900   0.2966
  sC9   Na   1       0.3364   0.0494
  sC9   IB   1       0.6154   0.2966
  sC9   MG   1       0.2406   0.8871
  sC9    N   1       0.3325   0.3867
  sC9   NA   1       0.3325   0.3867
  sC9   NB   1       0.3325   0.3867
  sC9   NC   1       0.3325   0.3867
  sC9   N2   1       0.3325   0.3867
  sC9   N3   1       0.3325   0.3867
  sC9   N*   1       0.3325   0.3867
  sC9    O   1       0.3180   0.4298
  sC9   OB   1       0.3180   0.4298
  sC9   OW   1       0.3275   0.3658
  sC9   OH   1       0.3233   0.4302
  sC9   O3   1       0.3233   0.4302
  sC9   OS   1       0.3200   0.3867
  sC9   O2   1       0.3180   0.4298
  sC9    P   1       0.3571   0.4194
  sC9    S   1       0.3482   0.4689
  sC9   SH   1       0.3482   0.4689
  sC9   CU   1       0.3400   0.2750
  sC9   FE   1       0.1700   0.0000
  sC9    K   1       0.4068   0.0170
  sC9   Rb   1       0.4333   0.0122
  sC9   Li   1       0.2713   0.1269
  sC9   Zn   1       0.2680   0.1049
  sC9 HW_tip4pew   1       0.1700   0.0000
  sC9 OW_tip4pew   1       0.3282   0.3784
  sC9 HW_tip4p   1       0.1700   0.0000
  sC9 OW_tip4p   1       0.3277   0.3692
  sC9 HW_tip5p   1       0.1700   0.0000
  sC9 OW_tip5p   1       0.3260   0.3751
  sC9 HW_tip4pd   1       0.1700   0.0000
  sC9 OW_tip4pd   1       0.3282   0.4583
  sC9   MW   1       0.1700   0.0000
  sC9 MCH3   1       0.1700   0.0000
  sC9 MNH3   1       0.1700   0.0000
  sC9   c3   1       0.3400   0.3102
  sC9   hc   1       0.3025   0.1175
  sC9    c   1       0.3400   0.2750
  sC9    o   1       0.3180   0.4298
  sC9    n   1       0.3325   0.3867
  sC9   h1   1       0.2936   0.1175
  sC9   ca   1       0.3400   0.2750
  sC9   ha   1       0.3000   0.1149
  sC9   n3   1       0.3325   0.3867
  sC9   hx   1       0.2680   0.1175
  sC9   n4   1       0.3325   0.3867
  sC9   hn   1       0.2234   0.1175
  sCV   Br   1       0.1700   0.0000
  sCV    C   1       0.3400   0.2439
  sCV   C6   1       0.3400   0.2439
  sCV   C5   1       0.3400   0.2439
  sCV   CA   1       0.3400   0.2439
  sCV   CB   1       0.3400   0.2439
  sCV   CC   1       0.3400   0.2439
  sCV   CK   1       0.3400   0.2439
  sCV   CM   1       0.3400   0.2439
  sCV   CN   1       0.3400   0.2439
  sCV   CQ   1       0.3400   0.2439
  sCV   CR   1       0.3400   0.2439
  sCV   CT   1       0.3400   0.2750
  sCV   C1   1       0.3400   0.2750
  sCV   C3   1       0.3400   0.2750
  sCV   C4   1       0.3400   0.2750
  sCV   C7   1       0.3400   0.2750
  sCV   C8   1       0.3400   0.2750
  sCV   C9   1       0.3400   0.2750
  sCV   CV   1       0.3400   0.2439
  sCV   CW   1       0.3400   0.2439
  sCV   C*   1       0.3400   0.2439
  sCV   C0   1       0.3226   0.5638
  sCV    F   1       0.3259   0.2054
  sCV    H   1       0.2234   0.1042
  sCV   HB   1       0.2234   0.1042
  sCV   HC   1       0.3025   0.1042
  sCV   H1   1       0.2936   0.1042
  sCV   H2   1       0.2846   0.1042
  sCV   H3   1       0.2757   0.1042
  sCV   HA   1       0.3000   0.1018
  sCV   H4   1       0.2955   0.1018
  sCV   H5   1       0.2911   0.1018
  sCV   HO   1       0.1700   0.0000
  sCV   HS   1       0.2234   0.1042
  sCV   HW   1       0.1700   0.0000
  sCV   HP   1       0.2680   0.1042
  sCV    I   1       0.3793   0.5259
  sCV   Cl   1       0.3900   0.2630
  sCV   Na   1       0.3364   0.0438
  sCV   IB   1       0.6154   0.2630
  sCV   MG   1       0.2406   0.7865
  sCV    N   1       0.3325   0.3428
  sCV   NA   1       0.3325   0.3428
  sCV   NB   1       0.3325   0.3428
  sCV   NC   1       0.3325   0.3428
  sCV   N2   1       0.3325   0.3428
  sCV   N3   1       0.3325   0.3428
  sCV   N*   1       0.3325   0.3428
  sCV    O   1       0.3180   0.3811
  sCV   OB   1       0.3180   0.3811
  sCV   OW   1       0.3275   0.3243
  sCV   OH   1       0.3233   0.3814
  sCV   O3   1       0.3233   0.3814
  sCV   OS   1       0.3200   0.3428
  sCV   O2   1       0.3180   0.3811
  sCV    P   1       0.3571   0.3719
  sCV    S   1       0.3482   0.4158
  sCV   SH   1       0.3482   0.4158
  sCV   CU   1       0.3400   0.2439
  sCV   FE   1       0.1700   0.0000
  sCV    K   1       0.4068   0.0151
  sCV   Rb   1       0.4333   0.0108
  sCV   Li   1       0.2713   0.1125
  sCV   Zn   1       0.2680   0.0930
  sCV HW_tip4pew   1       0.1700   0.0000
  sCV OW_tip4pew   1       0.3282   0.3355
  sCV HW_tip4p   1       0.1700   0.0000
  sCV OW_tip4p   1       0.3277   0.3274
  sCV HW_tip5p   1       0.1700   0.0000
  sCV OW_tip5p   1       0.3260   0.3326
  sCV HW_tip4pd   1       0.1700   0.0000
  sCV OW_tip4pd   1       0.3282   0.4063
  sCV   MW   1       0.1700   0.0000
  sCV MCH3   1       0.1700   0.0000
  sCV MNH3   1       0.1700   0.0000
  sCV   c3   1       0.3400   0.2750
  sCV   hc   1       0.3025   0.1042
  sCV    c   1       0.3400   0.2439
  sCV    o   1       0.3180   0.3811
  sCV    n   1       0.3325   0.3428
  sCV   h1   1       0.2936   0.1042
  sCV   ca   1       0.3400   0.2439
  sCV   ha   1       0.3000   0.1018
  sCV   n3   1       0.3325   0.3428
  sCV   hx   1       0.2680   0.1042
  sCV   n4   1       0.3325   0.3428
  sCV   hn   1       0.2234   0.1042
  sCW   Br   1       0.1700   0.0000
  sCW    C   1       0.3400   0.2439
  sCW   C6   1       0.3400   0.2439
  sCW   C5   1       0.3400   0.2439
  sCW   CA   1       0.3400   0.2439
  sCW   CB   1       0.3400   0.2439
  sCW   CC   1       0.3400   0.2439
  sCW   CK   1       0.3400   0.2439
  sCW   CM   1       0.3400   0.2439
  sCW   CN   1       0.3400   0.2439
  sCW   CQ   1       0.3400   0.2439
  sCW   CR   1       0.3400   0.2439
  sCW   CT   1       0.3400   0.2750
  sCW   C1   1       0.3400   0.2750
  sCW   C3   1       0.3400   0.2750
  sCW   C4   1       0.3400   0.2750
  sCW   C7   1       0.3400   0.2750
  sCW   C8   1       0.3400   0.2750
  sCW   C9   1       0.3400   0.2750
  sCW   CV   1       0.3400   0.2439
  sCW   CW   1       0.3400   0.2439
  sCW   C*   1       0.3400   0.2439
  sCW   C0   1       0.3226   0.5638
  sCW    F   1       0.3259   0.2054
  sCW    H   1       0.2234   0.1042
  sCW   HB   1       0.2234   0.1042
  sCW   HC   1       0.3025   0.1042
  sCW   H1   1       0.2936   0.1042
  sCW   H2   1       0.2846   0.1042
  sCW   H3   1       0.2757   0.1042
  sCW   HA   1       0.3000   0.1018
  sCW   H4   1       0.2955   0.1018
  sCW   H5   1       0.2911   0.1018
  sCW   HO   1       0.1700   0.0000
  sCW   HS   1       0.2234   0.1042
  sCW   HW   1       0.1700   0.0000
  sCW   HP   1       0.2680   0.1042
  sCW    I   1       0.3793   0.5259
  sCW   Cl   1       0.3900   0.2630
  sCW   Na   1       0.3364   0.0438
  sCW   IB   1       0.6154   0.2630
  sCW   MG   1       0.2406   0.7865
  sCW    N   1       0.3325   0.3428
  sCW   NA   1       0.3325   0.3428
  sCW   NB   1       0.3325   0.3428
  sCW   NC   1       0.3325   0.3428
  sCW   N2   1       0.3325   0.3428
  sCW   N3   1       0.3325   0.3428
  sCW   N*   1       0.3325   0.3428
  sCW    O   1       0.3180   0.3811
  sCW   OB   1       0.3180   0.3811
  sCW   OW   1       0.3275   0.3243
  sCW   OH   1       0.3233   0.3814
  sCW   O3   1       0.3233   0.3814
  sCW   OS   1       0.3200   0.3428
  sCW   O2   1       0.3180   0.3811
  sCW    P   1       0.3571   0.3719
  sCW    S   1       0.3482   0.4158
  sCW   SH   1       0.3482   0.4158
  sCW   CU   1       0.3400   0.2439
  sCW   FE   1       0.1700   0.0000
  sCW    K   1       0.4068   0.0151
  sCW   Rb   1       0.4333   0.0108
  sCW   Li   1       0.2713   0.1125
  sCW   Zn   1       0.2680   0.0930
  sCW HW_tip4pew   1       0.1700   0.0000
  sCW OW_tip4pew   1       0.3282   0.3355
  sCW HW_tip4p   1       0.1700   0.0000
  sCW OW_tip4p   1       0.3277   0.3274
  sCW HW_tip5p   1       0.1700   0.0000
  sCW OW_tip5p   1       0.3260   0.3326
  sCW HW_tip4pd   1       0.1700   0.0000
  sCW OW_tip4pd   1       0.3282   0.4063
  sCW   MW   1       0.1700   0.0000
  sCW MCH3   1       0.1700   0.0000
  sCW MNH3   1       0.1700   0.0000
  sCW   c3   1       0.3400   0.2750
  sCW   hc   1       0.3025   0.1042
  sCW    c   1       0.3400   0.2439
  sCW    o   1       0.3180   0.3811
  sCW    n   1       0.3325   0.3428
  sCW   h1   1       0.2936   0.1042
  sCW   ca   1       0.3400   0.2439
  sCW   ha   1       0.3000   0.1018
  sCW   n3   1       0.3325   0.3428
  sCW   hx   1       0.2680   0.1042
  sCW   n4   1       0.3325   0.3428
  sCW   hn   1       0.2234   0.1042
  sC*   Br   1       0.1700   0.0000
  sC*    C   1       0.3400   0.2439
  sC*   C6   1       0.3400   0.2439
  sC*   C5   1       0.3400   0.2439
  sC*   CA   1       0.3400   0.2439
  sC*   CB   1       0.3400   0.2439
  sC*   CC   1       0.3400   0.2439
  sC*   CK   1       0.3400   0.2439
  sC*   CM   1       0.3400   0.2439
  sC*   CN   1       0.3400   0.2439
  sC*   CQ   1       0.3400   0.2439
  sC*   CR   1       0.3400   0.2439
  sC*   CT   1       0.3400   0.2750
  sC*   C1   1       0.3400   0.2750
  sC*   C3   1       0.3400   0.2750
  sC*   C4   1       0.3400   0.2750
  sC*   C7   1       0.3400   0.2750
  sC*   C8   1       0.3400   0.2750
  sC*   C9   1       0.3400   0.2750
  sC*   CV   1       0.3400   0.2439
  sC*   CW   1       0.3400   0.2439
  sC*   C*   1       0.3400   0.2439
  sC*   C0   1       0.3226   0.5638
  sC*    F   1       0.3259   0.2054
  sC*    H   1       0.2234   0.1042
  sC*   HB   1       0.2234   0.1042
  sC*   HC   1       0.3025   0.1042
  sC*   H1   1       0.2936   0.1042
  sC*   H2   1       0.2846   0.1042
  sC*   H3   1       0.2757   0.1042
  sC*   HA   1       0.3000   0.1018
  sC*   H4   1       0.2955   0.1018
  sC*   H5   1       0.2911   0.1018
  sC*   HO   1       0.1700   0.0000
  sC*   HS   1       0.2234   0.1042
  sC*   HW   1       0.1700   0.0000
  sC*   HP   1       0.2680   0.1042
  sC*    I   1       0.3793   0.5259
  sC*   Cl   1       0.3900   0.2630
  sC*   Na   1       0.3364   0.0438
  sC*   IB   1       0.6154   0.2630
  sC*   MG   1       0.2406   0.7865
  sC*    N   1       0.3325   0.3428
  sC*   NA   1       0.3325   0.3428
  sC*   NB   1       0.3325   0.3428
  sC*   NC   1       0.3325   0.3428
  sC*   N2   1       0.3325   0.3428
  sC*   N3   1       0.3325   0.3428
  sC*   N*   1       0.3325   0.3428
  sC*    O   1       0.3180   0.3811
  sC*   OB   1       0.3180   0.3811
  sC*   OW   1       0.3275   0.3243
  sC*   OH   1       0.3233   0.3814
  sC*   O3   1       0.3233   0.3814
  sC*   OS   1       0.3200   0.3428
  sC*   O2   1       0.3180   0.3811
  sC*    P   1       0.3571   0.3719
  sC*    S   1       0.3482   0.4158
  sC*   SH   1       0.3482   0.4158
  sC*   CU   1       0.3400   0.2439
  sC*   FE   1       0.1700   0.0000
  sC*    K   1       0.4068   0.0151
  sC*   Rb   1       0.4333   0.0108
  sC*   Li   1       0.2713   0.1125
  sC*   Zn   1       0.2680   0.0930
  sC* HW_tip4pew   1       0.1700   0.0000
  sC* OW_tip4pew   1       0.3282   0.3355
  sC* HW_tip4p   1       0.1700   0.0000
  sC* OW_tip4p   1       0.3277   0.3274
  sC* HW_tip5p   1       0.1700   0.0000
  sC* OW_tip5p   1       0.3260   0.3326
  sC* HW_tip4pd   1       0.1700   0.0000
  sC* OW_tip4pd   1       0.3282   0.4063
  sC*   MW   1       0.1700   0.0000
  sC* MCH3   1       0.1700   0.0000
  sC* MNH3   1       0.1700   0.0000
  sC*   c3   1       0.3400   0.2750
  sC*   hc   1       0.3025   0.1042
  sC*    c   1       0.3400   0.2439
  sC*    o   1       0.3180   0.3811
  sC*    n   1       0.3325   0.3428
  sC*   h1   1       0.2936   0.1042
  sC*   ca   1       0.3400   0.2439
  sC*   ha   1       0.3000   0.1018
  sC*   n3   1       0.3325   0.3428
  sC*   hx   1       0.2680   0.1042
  sC*   n4   1       0.3325   0.3428
  sC*   hn   1       0.2234   0.1042
  sC0   Br   1       0.1526   0.0000
  sC0    C   1       0.3226   0.5638
  sC0   C6   1       0.3226   0.5638
  sC0   C5   1       0.3226   0.5638
  sC0   CA   1       0.3226   0.5638
  sC0   CB   1       0.3226   0.5638
  sC0   CC   1       0.3226   0.5638
  sC0   CK   1       0.3226   0.5638
  sC0   CM   1       0.3226   0.5638
  sC0   CN   1       0.3226   0.5638
  sC0   CQ   1       0.3226   0.5638
  sC0   CR   1       0.3226   0.5638
  sC0   CT   1       0.3226   0.6359
  sC0   C1   1       0.3226   0.6359
  sC0   C3   1       0.3226   0.6359
  sC0   C4   1       0.3226   0.6359
  sC0   C7   1       0.3226   0.6359
  sC0   C8   1       0.3226   0.6359
  sC0   C9   1       0.3226   0.6359
  sC0   CV   1       0.3226   0.5638
  sC0   CW   1       0.3226   0.5638
  sC0   C*   1       0.3226   0.5638
  sC0   C0   1       0.3052   1.3037
  sC0    F   1       0.3085   0.4749
  sC0    H   1       0.2061   0.2409
  sC0   HB   1       0.2061   0.2409
  sC0   HC   1       0.2851   0.2409
  sC0   H1   1       0.2762   0.2409
  sC0   H2   1       0.2673   0.2409
  sC0   H3   1       0.2584   0.2409
  sC0   HA   1       0.2826   0.2355
  sC0   H4   1       0.2781   0.2355
  sC0   H5   1       0.2737   0.2355
  sC0   HO   1       0.1526   0.0000
  sC0   HS   1       0.2061   0.2409
  sC0   HW   1       0.1526   0.0000
  sC0   HP   1       0.2506   0.2409
  sC0    I   1       0.3620   1.2160
  sC0   Cl   1       0.3727   0.6080
  sC0   Na   1       0.3190   0.1012
  sC0   IB   1       0.5981   0.6080
  sC0   MG   1       0.2232   1.8186
  sC0    N   1       0.3151   0.7927
  sC0   NA   1       0.3151   0.7927
  sC0   NB   1       0.3151   0.7927
  sC0   NC   1       0.3151   0.7927
  sC0   N2   1       0.3151   0.7927
  sC0   N3   1       0.3151   0.7927
  sC0   N*   1       0.3151   0.7927
  sC0    O   1       0.3006   0.8811
  sC0   OB   1       0.3006   0.8811
  sC0   OW   1       0.3102   0.7498
  sC0   OH   1       0.3059   0.8819
  sC0   O3   1       0.3059   0.8819
  sC0   OS   1       0.3026   0.7927
  sC0   O2   1       0.3006   0.8811
  sC0    P   1       0.3397   0.8598
  sC0    S   1       0.3308   0.9613
  sC0   SH   1       0.3308   0.9613
  sC0   CU   1       0.3226   0.5638
  sC0   FE   1       0.1526   0.0000
  sC0    K   1       0.3894   0.0348
  sC0   Rb   1       0.4160   0.0251
  sC0   Li   1       0.2539   0.2601
  sC0   Zn   1       0.2506   0.2150
  sC0 HW_tip4pew   1       0.1526   0.0000
  sC0 OW_tip4pew   1       0.3108   0.7756
  sC0 HW_tip4p   1       0.1526   0.0000
  sC0 OW_tip4p   1       0.3103   0.7570
  sC0 HW_tip5p   1       0.1526   0.0000
  sC0 OW_tip5p   1       0.3086   0.7691
  sC0 HW_tip4pd   1       0.1526   0.0000
  sC0 OW_tip4pd   1       0.3109   0.9395
  sC0   MW   1       0.1526   0.0000
  sC0 MCH3   1       0.1526   0.0000
  sC0 MNH3   1       0.1526   0.0000
  sC0   c3   1       0.3226   0.6359
  sC0   hc   1       0.2851   0.2409
  sC0    c   1       0.3226   0.5638
  sC0    o   1       0.3006   0.8811
  sC0    n   1       0.3151   0.7927
  sC0   h1   1       0.2762   0.2409
  sC0   ca   1       0.3226   0.5638
  sC0   ha   1       0.2826   0.2355
  sC0   n3   1       0.3151   0.7927
  sC0   hx   1       0.2506   0.2409
  sC0   n4   1       0.3151   0.7927
  sC0   hn   1       0.2061   0.2409
   sF   Br   1       0.1559   0.0000
   sF    C   1       0.3259   0.2054
   sF   C6   1       0.3259   0.2054
   sF   C5   1       0.3259   0.2054
   sF   CA   1       0.3259   0.2054
   sF   CB   1       0.3259   0.2054
   sF   CC   1       0.3259   0.2054
   sF   CK   1       0.3259   0.2054
   sF   CM   1       0.3259   0.2054
   sF   CN   1       0.3259   0.2054
   sF   CQ   1       0.3259   0.2054
   sF   CR   1       0.3259   0.2054
   sF   CT   1       0.3259   0.2316
   sF   C1   1       0.3259   0.2316
   sF   C3   1       0.3259   0.2316
   sF   C4   1       0.3259   0.2316
   sF   C7   1       0.3259   0.2316
   sF   C8   1       0.3259   0.2316
   sF   C9   1       0.3259   0.2316
   sF   CV   1       0.3259   0.2054
   sF   CW   1       0.3259   0.2054
   sF   C*   1       0.3259   0.2054
   sF   C0   1       0.3085   0.4749
   sF    F   1       0.3118   0.1730
   sF    H   1       0.2094   0.0877
   sF   HB   1       0.2094   0.0877
   sF   HC   1       0.2884   0.0877
   sF   H1   1       0.2795   0.0877
   sF   H2   1       0.2706   0.0877
   sF   H3   1       0.2617   0.0877
   sF   HA   1       0.2859   0.0858
   sF   H4   1       0.2814   0.0858
   sF   H5   1       0.2770   0.0858
   sF   HO   1       0.1559   0.0000
   sF   HS   1       0.2094   0.0877
   sF   HW   1       0.1559   0.0000
   sF   HP   1       0.2539   0.0877
   sF    I   1       0.3653   0.4429
   sF   Cl   1       0.3760   0.2215
   sF   Na   1       0.3223   0.0369
   sF   IB   1       0.6014   0.2215
   sF   MG   1       0.2265   0.6624
   sF    N   1       0.3184   0.2887
   sF   NA   1       0.3184   0.2887
   sF   NB   1       0.3184   0.2887
   sF   NC   1       0.3184   0.2887
   sF   N2   1       0.3184   0.2887
   sF   N3   1       0.3184   0.2887
   sF   N*   1       0.3184   0.2887
   sF    O   1       0.3039   0.3209
   sF   OB   1       0.3039   0.3209
   sF   OW   1       0.3134   0.2731
   sF   OH   1       0.3092   0.3212
   sF   O3   1       0.3092   0.3212
   sF   OS   1       0.3059   0.2887
   sF   O2   1       0.3039   0.3209
   sF    P   1       0.3430   0.3132
   sF    S   1       0.3341   0.3502
   sF   SH   1       0.3341   0.3502
   sF   CU   1       0.3259   0.2054
   sF   FE   1       0.1559   0.0000
   sF    K   1       0.3927   0.0127
   sF   Rb   1       0.4193   0.0091
   sF   Li   1       0.2572   0.0947
   sF   Zn   1       0.2539   0.0783
   sF HW_tip4pew   1       0.1559   0.0000
   sF OW_tip4pew   1       0.3141   0.2825
   sF HW_tip4p   1       0.1559   0.0000
   sF OW_tip4p   1       0.3136   0.2757
   sF HW_tip5p   1       0.1559   0.0000
   sF OW_tip5p   1       0.3119   0.2801
   sF HW_tip4pd   1       0.1559   0.0000
   sF OW_tip4pd   1       0.3142   0.3422
   sF   MW   1       0.1559   0.0000
   sF MCH3   1       0.1559   0.0000
   sF MNH3   1       0.1559   0.0000
   sF   c3   1       0.3259   0.2316
   sF   hc   1       0.2884   0.0877
   sF    c   1       0.3259   0.2054
   sF    o   1       0.3039   0.3209
   sF    n   1       0.3184   0.2887
   sF   h1   1       0.2795   0.0877
   sF   ca   1       0.3259   0.2054
   sF   ha   1       0.2859   0.0858
   sF   n3   1       0.3184   0.2887
   sF   hx   1       0.2539   0.0877
   sF   n4   1       0.3184   0.2887
   sF   hn   1       0.2094   0.0877
   sH   Br   1       0.0535   0.0000
   sH    C   1       0.2234   0.1042
   sH   C6   1       0.2234   0.1042
   sH   C5   1       0.2234   0.1042
   sH   CA   1       0.2234   0.1042
   sH   CB   1       0.2234   0.1042
   sH   CC   1       0.2234   0.1042
   sH   CK   1       0.2234   0.1042
   sH   CM   1       0.2234   0.1042
   sH   CN   1       0.2234   0.1042
   sH   CQ   1       0.2234   0.1042
   sH   CR   1       0.2234   0.1042
   sH   CT   1       0.2234   0.1175
   sH   C1   1       0.2234   0.1175
   sH   C3   1       0.2234   0.1175
   sH   C4   1       0.2234   0.1175
   sH   C7   1       0.2234   0.1175
   sH   C8   1       0.2234   0.1175
   sH   C9   1       0.2234   0.1175
   sH   CV   1       0.2234   0.1042
   sH   CW   1       0.2234   0.1042
   sH   C*   1       0.2234   0.1042
   sH   C0   1       0.2061   0.2409
   sH    F   1       0.2094   0.0877
   sH    H   1       0.1069   0.0445
   sH   HB   1       0.1069   0.0445
   sH   HC   1       0.1859   0.0445
   sH   H1   1       0.1770   0.0445
   sH   H2   1       0.1681   0.0445
   sH   H3   1       0.1592   0.0445
   sH   HA   1       0.1834   0.0435
   sH   H4   1       0.1790   0.0435
   sH   H5   1       0.1745   0.0435
   sH   HO   1       0.0535   0.0000
   sH   HS   1       0.1069   0.0445
   sH   HW   1       0.0535   0.0000
   sH   HP   1       0.1515   0.0445
   sH    I   1       0.2628   0.2247
   sH   Cl   1       0.2735   0.1124
   sH   Na   1       0.2199   0.0187
   sH   IB   1       0.4989   0.1124
   sH   MG   1       0.1241   0.3361
   sH    N   1       0.2160   0.1465
   sH   NA   1       0.2160   0.1465
   sH   NB   1       0.2160   0.1465
   sH   NC   1       0.2160   0.1465
   sH   N2   1       0.2160   0.1465
   sH   N3   1       0.2160   0.1465
   sH   N*   1       0.2160   0.1465
   sH    O   1       0.2014   0.1628
   sH   OB   1       0.2014   0.1628
   sH   OW   1       0.2110   0.1386
   sH   OH   1       0.2068   0.1630
   sH   O3   1       0.2068   0.1630
   sH   OS   1       0.2035   0.1465
   sH   O2   1       0.2014   0.1628
   sH    P   1       0.2405   0.1589
   sH    S   1       0.2316   0.1776
   sH   SH   1       0.2316   0.1776
   sH   CU   1       0.2234   0.1042
   sH   FE   1       0.0535   0.0000
   sH    K   1       0.2903   0.0064
   sH   Rb   1       0.3168   0.0046
   sH   Li   1       0.1547   0.0481
   sH   Zn   1       0.1515   0.0397
   sH HW_tip4pew   1       0.0535   0.0000
   sH OW_tip4pew   1       0.2117   0.1433
   sH HW_tip4p   1       0.0535   0.0000
   sH OW_tip4p   1       0.2111   0.1399
   sH HW_tip5p   1       0.0535   0.0000
   sH OW_tip5p   1       0.2095   0.1421
   sH HW_tip4pd   1       0.0535   0.0000
   sH OW_tip4pd   1       0.2117   0.1736
   sH   MW   1       0.0535   0.0000
   sH MCH3   1       0.0535   0.0000
   sH MNH3   1       0.0535   0.0000
   sH   c3   1       0.2234   0.1175
   sH   hc   1       0.1859   0.0445
   sH    c   1       0.2234   0.1042
   sH    o   1       0.2014   0.1628
   sH    n   1       0.2160   0.1465
   sH   h1   1       0.1770   0.0445
   sH   ca   1       0.2234   0.1042
   sH   ha   1       0.1834   0.0435
   sH   n3   1       0.2160   0.1465
   sH   hx   1       0.1515   0.0445
   sH   n4   1       0.2160   0.1465
   sH   hn   1       0.1069   0.0445
  sHB   Br   1       0.0535   0.0000
  sHB    C   1       0.2234   0.1042
  sHB   C6   1       0.2234   0.1042
  sHB   C5   1       0.2234   0.1042
  sHB   CA   1       0.2234   0.1042
  sHB   CB   1       0.2234   0.1042
  sHB   CC   1       0.2234   0.1042
  sHB   CK   1       0.2234   0.1042
  sHB   CM   1       0.2234   0.1042
  sHB   CN   1       0.2234   0.1042
  sHB   CQ   1       0.2234   0.1042
  sHB   CR   1       0.2234   0.1042
  sHB   CT   1       0.2234   0.1175
  sHB   C1   1       0.2234   0.1175
  sHB   C3   1       0.2234   0.1175
  sHB   C4   1       0.2234   0.1175
  sHB   C7   1       0.2234   0.1175
  sHB   C8   1       0.2234   0.1175
  sHB   C9   1       0.2234   0.1175
  sHB   CV   1       0.2234   0.1042
  sHB   CW   1       0.2234   0.1042
  sHB   C*   1       0.2234   0.1042
  sHB   C0   1       0.2061   0.2409
  sHB    F   1       0.2094   0.0877
  sHB    H   1       0.1069   0.0445
  sHB   HB   1       0.1069   0.0445
  sHB   HC   1       0.1859   0.0445
  sHB   H1   1       0.1770   0.0445
  sHB   H2   1       0.1681   0.0445
  sHB   H3   1       0.1592   0.0445
  sHB   HA   1       0.1834   0.0435
  sHB   H4   1       0.1790   0.0435
  sHB   H5   1       0.1745   0.0435
  sHB   HO   1       0.0535   0.0000
  sHB   HS   1       0.1069   0.0445
  sHB   HW   1       0.0535   0.0000
  sHB   HP   1       0.1515   0.0445
  sHB    I   1       0.2628   0.2247
  sHB   Cl   1       0.2735   0.1124
  sHB   Na   1       0.2199   0.0187
  sHB   IB   1       0.4989   0.1124
  sHB   MG   1       0.1241   0.3361
  sHB    N   1       0.2160   0.1465
  sHB   NA   1       0.2160   0.1465
  sHB   NB   1       0.2160   0.1465
  sHB   NC   1       0.2160   0.1465
  sHB   N2   1       0.2160   0.1465
  sHB   N3   1       0.2160   0.1465
  sHB   N*   1       0.2160   0.1465
  sHB    O   1       0.2014   0.1628
  sHB   OB   1       0.2014   0.1628
  sHB   OW   1       0.2110   0.1386
  sHB   OH   1       0.2068   0.1630
  sHB   O3   1       0.2068   0.1630
  sHB   OS   1       0.2035   0.1465
  sHB   O2   1       0.2014   0.1628
  sHB    P   1       0.2405   0.1589
  sHB    S   1       0.2316   0.1776
  sHB   SH   1       0.2316   0.1776
  sHB   CU   1       0.2234   0.1042
  sHB   FE   1       0.0535   0.0000
  sHB    K   1       0.2903   0.0064
  sHB   Rb   1       0.3168   0.0046
  sHB   Li   1       0.1547   0.0481
  sHB   Zn   1       0.1515   0.0397
  sHB HW_tip4pew   1       0.0535   0.0000
  sHB OW_tip4pew   1       0.2117   0.1433
  sHB HW_tip4p   1       0.0535   0.0000
  sHB OW_tip4p   1       0.2111   0.1399
  sHB HW_tip5p   1       0.0535   0.0000
  sHB OW_tip5p   1       0.2095   0.1421
  sHB HW_tip4pd   1       0.0535   0.0000
  sHB OW_tip4pd   1       0.2117   0.1736
  sHB   MW   1       0.0535   0.0000
  sHB MCH3   1       0.0535   0.0000
  sHB MNH3   1       0.0535   0.0000
  sHB   c3   1       0.2234   0.1175
  sHB   hc   1       0.1859   0.0445
  sHB    c   1       0.2234   0.1042
  sHB    o   1       0.2014   0.1628
  sHB    n   1       0.2160   0.1465
  sHB   h1   1       0.1770   0.0445
  sHB   ca   1       0.2234   0.1042
  sHB   ha   1       0.1834   0.0435
  sHB   n3   1       0.2160   0.1465
  sHB   hx   1       0.1515   0.0445
  sHB   n4   1       0.2160   0.1465
  sHB   hn   1       0.1069   0.0445
  sHC   Br   1       0.1325   0.0000
  sHC    C   1       0.3025   0.1042
  sHC   C6   1       0.3025   0.1042
  sHC   C5   1       0.3025   0.1042
  sHC   CA   1       0.3025   0.1042
  sHC   CB   1       0.3025   0.1042
  sHC   CC   1       0.3025   0.1042
  sHC   CK   1       0.3025   0.1042
  sHC   CM   1       0.3025   0.1042
  sHC   CN   1       0.3025   0.1042
  sHC   CQ   1       0.3025   0.1042
  sHC   CR   1       0.3025   0.1042
  sHC   CT   1       0.3025   0.1175
  sHC   C1   1       0.3025   0.1175
  sHC   C3   1       0.3025   0.1175
  sHC   C4   1       0.3025   0.1175
  sHC   C7   1       0.3025   0.1175
  sHC   C8   1       0.3025   0.1175
  sHC   C9   1       0.3025   0.1175
  sHC   CV   1       0.3025   0.1042
  sHC   CW   1       0.3025   0.1042
  sHC   C*   1       0.3025   0.1042
  sHC   C0   1       0.2851   0.2409
  sHC    F   1       0.2884   0.0877
  sHC    H   1       0.1859   0.0445
  sHC   HB   1       0.1859   0.0445
  sHC   HC   1       0.2650   0.0445
  sHC   H1   1       0.2560   0.0445
  sHC   H2   1       0.2471   0.0445
  sHC   H3   1       0.2382   0.0445
  sHC   HA   1       0.2625   0.0435
  sHC   H4   1       0.2580   0.0435
  sHC   H5   1       0.2535   0.0435
  sHC   HO   1       0.1325   0.0000
  sHC   HS   1       0.1859   0.0445
  sHC   HW   1       0.1325   0.0000
  sHC   HP   1       0.2305   0.0445
  sHC    I   1       0.3418   0.2247
  sHC   Cl   1       0.3525   0.1124
  sHC   Na   1       0.2989   0.0187
  sHC   IB   1       0.5779   0.1124
  sHC   MG   1       0.2031   0.3361
  sHC    N   1       0.2950   0.1465
  sHC   NA   1       0.2950   0.1465
  sHC   NB   1       0.2950   0.1465
  sHC   NC   1       0.2950   0.1465
  sHC   N2   1       0.2950   0.1465
  sHC   N3   1       0.2950   0.1465
  sHC   N*   1       0.2950   0.1465
  sHC    O   1       0.2805   0.1628
  sHC   OB   1       0.2805   0.1628
  sHC   OW   1       0.2900   0.1386
  sHC   OH   1       0.2858   0.1630
  sHC   O3   1       0.2858   0.1630
  sHC   OS   1       0.2825   0.1465
  sHC   O2   1       0.2805   0.1628
  sHC    P   1       0.3196   0.1589
  sHC    S   1       0.3107   0.1776
  sHC   SH   1       0.3107   0.1776
  sHC   CU   1       0.3025   0.1042
  sHC   FE   1       0.1325   0.0000
  sHC    K   1       0.3693   0.0064
  sHC   Rb   1       0.3958   0.0046
  sHC   Li   1       0.2338   0.0481
  sHC   Zn   1       0.2305   0.0397
  sHC HW_tip4pew   1       0.1325   0.0000
  sHC OW_tip4pew   1       0.2907   0.1433
  sHC HW_tip4p   1       0.1325   0.0000
  sHC OW_tip4p   1       0.2902   0.1399
  sHC HW_tip5p   1       0.1325   0.0000
  sHC OW_tip5p   1       0.2885   0.1421
  sHC HW_tip4pd   1       0.1325   0.0000
  sHC OW_tip4pd   1       0.2907   0.1736
  sHC   MW   1       0.1325   0.0000
  sHC MCH3   1       0.1325   0.0000
  sHC MNH3   1       0.1325   0.0000
  sHC   c3   1       0.3025   0.1175
  sHC   hc   1       0.2650   0.0445
  sHC    c   1       0.3025   0.1042
  sHC    o   1       0.2805   0.1628
  sHC    n   1       0.2950   0.1465
  sHC   h1   1       0.2560   0.0445
  sHC   ca   1       0.3025   0.1042
  sHC   ha   1       0.2625   0.0435
  sHC   n3   1       0.2950   0.1465
  sHC   hx   1       0.2305   0.0445
  sHC   n4   1       0.2950   0.1465
  sHC   hn   1       0.1859   0.0445
  sH1   Br   1       0.1236   0.0000
  sH1    C   1       0.2936   0.1042
  sH1   C6   1       0.2936   0.1042
  sH1   C5   1       0.2936   0.1042
  sH1   CA   1       0.2936   0.1042
  sH1   CB   1       0.2936   0.1042
  sH1   CC   1       0.2936   0.1042
  sH1   CK   1       0.2936   0.1042
  sH1   CM   1       0.2936   0.1042
  sH1   CN   1       0.2936   0.1042
  sH1   CQ   1       0.2936   0.1042
  sH1   CR   1       0.2936   0.1042
  sH1   CT   1       0.2936   0.1175
  sH1   C1   1       0.2936   0.1175
  sH1   C3   1       0.2936   0.1175
  sH1   C4   1       0.2936   0.1175
  sH1   C7   1       0.2936   0.1175
  sH1   C8   1       0.2936   0.1175
  sH1   C9   1       0.2936   0.1175
  sH1   CV   1       0.2936   0.1042
  sH1   CW   1       0.2936   0.1042
  sH1   C*   1       0.2936   0.1042
  sH1   C0   1       0.2762   0.2409
  sH1    F   1       0.2795   0.0877
  sH1    H   1       0.1770   0.0445
  sH1   HB   1       0.1770   0.0445
  sH1   HC   1       0.2560   0.0445
  sH1   H1   1       0.2471   0.0445
  sH1   H2   1       0.2382   0.0445
  sH1   H3   1       0.2293   0.0445
  sH1   HA   1       0.2535   0.0435
  sH1   H4   1       0.2491   0.0435
  sH1   H5   1       0.2446   0.0435
  sH1   HO   1       0.1236   0.0000
  sH1   HS   1       0.1770   0.0445
  sH1   HW   1       0.1236   0.0000
  sH1   HP   1       0.2216   0.0445
  sH1    I   1       0.3329   0.2247
  sH1   Cl   1       0.3436   0.1124
  sH1   Na   1       0.2900   0.0187
  sH1   IB   1       0.5690   0.1124
  sH1   MG   1       0.1942   0.3361
  sH1    N   1       0.2861   0.1465
  sH1   NA   1       0.2861   0.1465
  sH1   NB   1       0.2861   0.1465
  sH1   NC   1       0.2861   0.1465
  sH1   N2   1       0.2861   0.1465
  sH1   N3   1       0.2861   0.1465
  sH1   N*   1       0.2861   0.1465
  sH1    O   1       0.2716   0.1628
  sH1   OB   1       0.2716   0.1628
  sH1   OW   1       0.2811   0.1386
  sH1   OH   1       0.2769   0.1630
  sH1   O3   1       0.2769   0.1630
  sH1   OS   1       0.2736   0.1465
  sH1   O2   1       0.2716   0.1628
  sH1    P   1       0.3107   0.1589
  sH1    S   1       0.3017   0.1776
  sH1   SH   1       0.3017   0.1776
  sH1   CU   1       0.2936   0.1042
  sH1   FE   1       0.1236   0.0000
  sH1    K   1       0.3604   0.0064
  sH1   Rb   1       0.3869   0.0046
  sH1   Li   1       0.2249   0.0481
  sH1   Zn   1       0.2216   0.0397
  sH1 HW_tip4pew   1       0.1236   0.0000
  sH1 OW_tip4pew   1       0.2818   0.1433
  sH1 HW_tip4p   1       0.1236   0.0000
  sH1 OW_tip4p   1       0.2812   0.1399
  sH1 HW_tip5p   1       0.1236   0.0000
  sH1 OW_tip5p   1       0.2796   0.1421
  sH1 HW_tip4pd   1       0.1236   0.0000
  sH1 OW_tip4pd   1       0.2818   0.1736
  sH1   MW   1       0.1236   0.0000
  sH1 MCH3   1       0.1236   0.0000
  sH1 MNH3   1       0.1236   0.0000
  sH1   c3   1       0.2936   0.1175
  sH1   hc   1       0.2560   0.0445
  sH1    c   1       0.2936   0.1042
  sH1    o   1       0.2716   0.1628
  sH1    n   1       0.2861   0.1465
  sH1   h1   1       0.2471   0.0445
  sH1   ca   1       0.2936   0.1042
  sH1   ha   1       0.2535   0.0435
  sH1   n3   1       0.2861   0.1465
  sH1   hx   1       0.2216   0.0445
  sH1   n4   1       0.2861   0.1465
  sH1   hn   1       0.1770   0.0445
  sH2   Br   1       0.1147   0.0000
  sH2    C   1       0.2846   0.1042
  sH2   C6   1       0.2846   0.1042
  sH2   C5   1       0.2846   0.1042
  sH2   CA   1       0.2846   0.1042
  sH2   CB   1       0.2846   0.1042
  sH2   CC   1       0.2846   0.1042
  sH2   CK   1       0.2846   0.1042
  sH2   CM   1       0.2846   0.1042
  sH2   CN   1       0.2846   0.1042
  sH2   CQ   1       0.2846   0.1042
  sH2   CR   1       0.2846   0.1042
  sH2   CT   1       0.2846   0.1175
  sH2   C1   1       0.2846   0.1175
  sH2   C3   1       0.2846   0.1175
  sH2   C4   1       0.2846   0.1175
  sH2   C7   1       0.2846   0.1175
  sH2   C8   1       0.2846   0.1175
  sH2   C9   1       0.2846   0.1175
  sH2   CV   1       0.2846   0.1042
  sH2   CW   1       0.2846   0.1042
  sH2   C*   1       0.2846   0.1042
  sH2   C0   1       0.2673   0.2409
  sH2    F   1       0.2706   0.0877
  sH2    H   1       0.1681   0.0445
  sH2   HB   1       0.1681   0.0445
  sH2   HC   1       0.2471   0.0445
  sH2   H1   1       0.2382   0.0445
  sH2   H2   1       0.2293   0.0445
  sH2   H3   1       0.2204   0.0445
  sH2   HA   1       0.2446   0.0435
  sH2   H4   1       0.2402   0.0435
  sH2   H5   1       0.2357   0.0435
  sH2   HO   1       0.1147   0.0000
  sH2   HS   1       0.1681   0.0445
  sH2   HW   1       0.1147   0.0000
  sH2   HP   1       0.2127   0.0445
  sH2    I   1       0.3240   0.2247
  sH2   Cl   1       0.3347   0.1124
  sH2   Na   1       0.2811   0.0187
  sH2   IB   1       0.5601   0.1124
  sH2   MG   1       0.1853   0.3361
  sH2    N   1       0.2772   0.1465
  sH2   NA   1       0.2772   0.1465
  sH2   NB   1       0.2772   0.1465
  sH2   NC   1       0.2772   0.1465
  sH2   N2   1       0.2772   0.1465
  sH2   N3   1       0.2772   0.1465
  sH2   N*   1       0.2772   0.1465
  sH2    O   1       0.2627   0.1628
  sH2   OB   1       0.2627   0.1628
  sH2   OW   1       0.2722   0.1386
  sH2   OH   1       0.2680   0.1630
  sH2   O3   1       0.2680   0.1630
  sH2   OS   1       0.2647   0.1465
  sH2   O2   1       0.2627   0.1628
  sH2    P   1       0.3017   0.1589
  sH2    S   1       0.2928   0.1776
  sH2   SH   1       0.2928   0.1776
  sH2   CU   1       0.2846   0.1042
  sH2   FE   1       0.1147   0.0000
  sH2    K   1       0.3515   0.0064
  sH2   Rb   1       0.3780   0.0046
  sH2   Li   1       0.2160   0.0481
  sH2   Zn   1       0.2127   0.0397
  sH2 HW_tip4pew   1       0.1147   0.0000
  sH2 OW_tip4pew   1       0.2729   0.1433
  sH2 HW_tip4p   1       0.1147   0.0000
  sH2 OW_tip4p   1       0.2723   0.1399
  sH2 HW_tip5p   1       0.1147   0.0000
  sH2 OW_tip5p   1       0.2707   0.1421
  sH2 HW_tip4pd   1       0.1147   0.0000
  sH2 OW_tip4pd   1       0.2729   0.1736
  sH2   MW   1       0.1147   0.0000
  sH2 MCH3   1       0.1147   0.0000
  sH2 MNH3   1       0.1147   0.0000
  sH2   c3   1       0.2846   0.1175
  sH2   hc   1       0.2471   0.0445
  sH2    c   1       0.2846   0.1042
  sH2    o   1       0.2627   0.1628
  sH2    n   1       0.2772   0.1465
  sH2   h1   1       0.2382   0.0445
  sH2   ca   1       0.2846   0.1042
  sH2   ha   1       0.2446   0.0435
  sH2   n3   1       0.2772   0.1465
  sH2   hx   1       0.2127   0.0445
  sH2   n4   1       0.2772   0.1465
  sH2   hn   1       0.1681   0.0445
  sH3   Br   1       0.1057   0.0000
  sH3    C   1       0.2757   0.1042
  sH3   C6   1       0.2757   0.1042
  sH3   C5   1       0.2757   0.1042
  sH3   CA   1       0.2757   0.1042
  sH3   CB   1       0.2757   0.1042
  sH3   CC   1       0.2757   0.1042
  sH3   CK   1       0.2757   0.1042
  sH3   CM   1       0.2757   0.1042
  sH3   CN   1       0.2757   0.1042
  sH3   CQ   1       0.2757   0.1042
  sH3   CR   1       0.2757   0.1042
  sH3   CT   1       0.2757   0.1175
  sH3   C1   1       0.2757   0.1175
  sH3   C3   1       0.2757   0.1175
  sH3   C4   1       0.2757   0.1175
  sH3   C7   1       0.2757   0.1175
  sH3   C8   1       0.2757   0.1175
  sH3   C9   1       0.2757   0.1175
  sH3   CV   1       0.2757   0.1042
  sH3   CW   1       0.2757   0.1042
  sH3   C*   1       0.2757   0.1042
  sH3   C0   1       0.2584   0.2409
  sH3    F   1       0.2617   0.0877
  sH3    H   1       0.1592   0.0445
  sH3   HB   1       0.1592   0.0445
  sH3   HC   1       0.2382   0.0445
  sH3   H1   1       0.2293   0.0445
  sH3   H2   1       0.2204   0.0445
  sH3   H3   1       0.2115   0.0445
  sH3   HA   1       0.2357   0.0435
  sH3   H4   1       0.2313   0.0435
  sH3   H5   1       0.2268   0.0435
  sH3   HO   1       0.1057   0.0000
  sH3   HS   1       0.1592   0.0445
  sH3   HW   1       0.1057   0.0000
  sH3   HP   1       0.2037   0.0445
  sH3    I   1       0.3151   0.2247
  sH3   Cl   1       0.3258   0.1124
  sH3   Na   1       0.2722   0.0187
  sH3   IB   1       0.5512   0.1124
  sH3   MG   1       0.1764   0.3361
  sH3    N   1       0.2682   0.1465
  sH3   NA   1       0.2682   0.1465
  sH3   NB   1       0.2682   0.1465
  sH3   NC   1       0.2682   0.1465
  sH3   N2   1       0.2682   0.1465
  sH3   N3   1       0.2682   0.1465
  sH3   N*   1       0.2682   0.1465
  sH3    O   1       0.2537   0.1628
  sH3   OB   1       0.2537   0.1628
  sH3   OW   1       0.2633   0.1386
  sH3   OH   1       0.2591   0.1630
  sH3   O3   1       0.2591   0.1630
  sH3   OS   1       0.2558   0.1465
  sH3   O2   1       0.2537   0.1628
  sH3    P   1       0.2928   0.1589
  sH3    S   1       0.2839   0.1776
  sH3   SH   1       0.2839   0.1776
  sH3   CU   1       0.2757   0.1042
  sH3   FE   1       0.1057   0.0000
  sH3    K   1       0.3426   0.0064
  sH3   Rb   1       0.3691   0.0046
  sH3   Li   1       0.2070   0.0481
  sH3   Zn   1       0.2037   0.0397
  sH3 HW_tip4pew   1       0.1057   0.0000
  sH3 OW_tip4pew   1       0.2640   0.1433
  sH3 HW_tip4p   1       0.1057   0.0000
  sH3 OW_tip4p   1       0.2634   0.1399
  sH3 HW_tip5p   1       0.1057   0.0000
  sH3 OW_tip5p   1       0.2617   0.1421
  sH3 HW_tip4pd   1       0.1057   0.0000
  sH3 OW_tip4pd   1       0.2640   0.1736
  sH3   MW   1       0.1057   0.0000
  sH3 MCH3   1       0.1057   0.0000
  sH3 MNH3   1       0.1057   0.0000
  sH3   c3   1       0.2757   0.1175
  sH3   hc   1       0.2382   0.0445
  sH3    c   1       0.2757   0.1042
  sH3    o   1       0.2537   0.1628
  sH3    n   1       0.2682   0.1465
  sH3   h1   1       0.2293   0.0445
  sH3   ca   1       0.2757   0.1042
  sH3   ha   1       0.2357   0.0435
  sH3   n3   1       0.2682   0.1465
  sH3   hx   1       0.2037   0.0445
  sH3   n4   1       0.2682   0.1465
  sH3   hn   1       0.1592   0.0445
  sHA   Br   1       0.1300   0.0000
  sHA    C   1       0.3000   0.1018
  sHA   C6   1       0.3000   0.1018
  sHA   C5   1       0.3000   0.1018
  sHA   CA   1       0.3000   0.1018
  sHA   CB   1       0.3000   0.1018
  sHA   CC   1       0.3000   0.1018
  sHA   CK   1       0.3000   0.1018
  sHA   CM   1       0.3000   0.1018
  sHA   CN   1       0.3000   0.1018
  sHA   CQ   1       0.3000   0.1018
  sHA   CR   1       0.3000   0.1018
  sHA   CT   1       0.3000   0.1149
  sHA   C1   1       0.3000   0.1149
  sHA   C3   1       0.3000   0.1149
  sHA   C4   1       0.3000   0.1149
  sHA   C7   1       0.3000   0.1149
  sHA   C8   1       0.3000   0.1149
  sHA   C9   1       0.3000   0.1149
  sHA   CV   1       0.3000   0.1018
  sHA   CW   1       0.3000   0.1018
  sHA   C*   1       0.3000   0.1018
  sHA   C0   1       0.2826   0.2355
  sHA    F   1       0.2859   0.0858
  sHA    H   1       0.1834   0.0435
  sHA   HB   1       0.1834   0.0435
  sHA   HC   1       0.2625   0.0435
  sHA   H1   1       0.2535   0.0435
  sHA   H2   1       0.2446   0.0435
  sHA   H3   1       0.2357   0.0435
  sHA   HA   1       0.2600   0.0425
  sHA   H4   1       0.2555   0.0425
  sHA   H5   1       0.2511   0.0425
  sHA   HO   1       0.1300   0.0000
  sHA   HS   1       0.1834   0.0435
  sHA   HW   1       0.1300   0.0000
  sHA   HP   1       0.2280   0.0435
  sHA    I   1       0.3393   0.2196
  sHA   Cl   1       0.3500   0.1098
  sHA   Na   1       0.2964   0.0183
  sHA   IB   1       0.5754   0.1098
  sHA   MG   1       0.2006   0.3285
  sHA    N   1       0.2925   0.1432
  sHA   NA   1       0.2925   0.1432
  sHA   NB   1       0.2925   0.1432
  sHA   NC   1       0.2925   0.1432
  sHA   N2   1       0.2925   0.1432
  sHA   N3   1       0.2925   0.1432
  sHA   N*   1       0.2925   0.1432
  sHA    O   1       0.2780   0.1591
  sHA   OB   1       0.2780   0.1591
  sHA   OW   1       0.2875   0.1354
  sHA   OH   1       0.2833   0.1593
  sHA   O3   1       0.2833   0.1593
  sHA   OS   1       0.2800   0.1432
  sHA   O2   1       0.2780   0.1591
  sHA    P   1       0.3171   0.1553
  sHA    S   1       0.3082   0.1736
  sHA   SH   1       0.3082   0.1736
  sHA   CU   1       0.3000   0.1018
  sHA   FE   1       0.1300   0.0000
  sHA    K   1       0.3668   0.0063
  sHA   Rb   1       0.3933   0.0045
  sHA   Li   1       0.2313   0.0470
  sHA   Zn   1       0.2280   0.0388
  sHA HW_tip4pew   1       0.1300   0.0000
  sHA OW_tip4pew   1       0.2882   0.1401
  sHA HW_tip4p   1       0.1300   0.0000
  sHA OW_tip4p   1       0.2877   0.1367
  sHA HW_tip5p   1       0.1300   0.0000
  sHA OW_tip5p   1       0.2860   0.1389
  sHA HW_tip4pd   1       0.1300   0.0000
  sHA OW_tip4pd   1       0.2882   0.1697
  sHA   MW   1       0.1300   0.0000
  sHA MCH3   1       0.1300   0.0000
  sHA MNH3   1       0.1300   0.0000
  sHA   c3   1       0.3000   0.1149
  sHA   hc   1       0.2625   0.0435
  sHA    c   1       0.3000   0.1018
  sHA    o   1       0.2780   0.1591
  sHA    n   1       0.2925   0.1432
  sHA   h1   1       0.2535   0.0435
  sHA   ca   1       0.3000   0.1018
  sHA   ha   1       0.2600   0.0425
  sHA   n3   1       0.2925   0.1432
  sHA   hx   1       0.2280   0.0435
  sHA   n4   1       0.2925   0.1432
  sHA   hn   1       0.1834   0.0435
  sH4   Br   1       0.1255   0.0000
  sH4    C   1       0.2955   0.1018
  sH4   C6   1       0.2955   0.1018
  sH4   C5   1       0.2955   0.1018
  sH4   CA   1       0.2955   0.1018
  sH4   CB   1       0.2955   0.1018
  sH4   CC   1       0.2955   0.1018
  sH4   CK   1       0.2955   0.1018
  sH4   CM   1       0.2955   0.1018
  sH4   CN   1       0.2955   0.1018
  sH4   CQ   1       0.2955   0.1018
  sH4   CR   1       0.2955   0.1018
  sH4   CT   1       0.2955   0.1149
  sH4   C1   1       0.2955   0.1149
  sH4   C3   1       0.2955   0.1149
  sH4   C4   1       0.2955   0.1149
  sH4   C7   1       0.2955   0.1149
  sH4   C8   1       0.2955   0.1149
  sH4   C9   1       0.2955   0.1149
  sH4   CV   1       0.2955   0.1018
  sH4   CW   1       0.2955   0.1018
  sH4   C*   1       0.2955   0.1018
  sH4   C0   1       0.2781   0.2355
  sH4    F   1       0.2814   0.0858
  sH4    H   1       0.1790   0.0435
  sH4   HB   1       0.1790   0.0435
  sH4   HC   1       0.2580   0.0435
  sH4   H1   1       0.2491   0.0435
  sH4   H2   1       0.2402   0.0435
  sH4   H3   1       0.2313   0.0435
  sH4   HA   1       0.2555   0.0425
  sH4   H4   1       0.2511   0.0425
  sH4   H5   1       0.2466   0.0425
  sH4   HO   1       0.1255   0.0000
  sH4   HS   1       0.1790   0.0435
  sH4   HW   1       0.1255   0.0000
  sH4   HP   1       0.2235   0.0435
  sH4    I   1       0.3349   0.2196
  sH4   Cl   1       0.3456   0.1098
  sH4   Na   1       0.2919   0.0183
  sH4   IB   1       0.5710   0.1098
  sH4   MG   1       0.1961   0.3285
  sH4    N   1       0.2880   0.1432
  sH4   NA   1       0.2880   0.1432
  sH4   NB   1       0.2880   0.1432
  sH4   NC   1       0.2880   0.1432
  sH4   N2   1       0.2880   0.1432
  sH4   N3   1       0.2880   0.1432
  sH4   N*   1       0.2880   0.1432
  sH4    O   1       0.2735   0.1591
  sH4   OB   1       0.2735   0.1591
  sH4   OW   1       0.2831   0.1354
  sH4   OH   1       0.2789   0.1593
  sH4   O3   1       0.2789   0.1593
  sH4   OS   1       0.2755   0.1432
  sH4   O2   1       0.2735   0.1591
  sH4    P   1       0.3126   0.1553
  sH4    S   1       0.3037   0.1736
  sH4   SH   1       0.3037   0.1736
  sH4   CU   1       0.2955   0.1018
  sH4   FE   1       0.1255   0.0000
  sH4    K   1       0.3623   0.0063
  sH4   Rb   1       0.3889   0.0045
  sH4   Li   1       0.2268   0.0470
  sH4   Zn   1       0.2235   0.0388
  sH4 HW_tip4pew   1       0.1255   0.0000
  sH4 OW_tip4pew   1       0.2837   0.1401
  sH4 HW_tip4p   1       0.1255   0.0000
  sH4 OW_tip4p   1       0.2832   0.1367
  sH4 HW_tip5p   1       0.1255   0.0000
  sH4 OW_tip5p   1       0.2815   0.1389
  sH4 HW_tip4pd   1       0.1255   0.0000
  sH4 OW_tip4pd   1       0.2838   0.1697
  sH4   MW   1       0.1255   0.0000
  sH4 MCH3   1       0.1255   0.0000
  sH4 MNH3   1       0.1255   0.0000
  sH4   c3   1       0.2955   0.1149
  sH4   hc   1       0.2580   0.0435
  sH4    c   1       0.2955   0.1018
  sH4    o   1       0.2735   0.1591
  sH4    n   1       0.2880   0.1432
  sH4   h1   1       0.2491   0.0435
  sH4   ca   1       0.2955   0.1018
  sH4   ha   1       0.2555   0.0425
  sH4   n3   1       0.2880   0.1432
  sH4   hx   1       0.2235   0.0435
  sH4   n4   1       0.2880   0.1432
  sH4   hn   1       0.1790   0.0435
  sH5   Br   1       0.1211   0.0000
  sH5    C   1       0.2911   0.1018
  sH5   C6   1       0.2911   0.1018
  sH5   C5   1       0.2911   0.1018
  sH5   CA   1       0.2911   0.1018
  sH5   CB   1       0.2911   0.1018
  sH5   CC   1       0.2911   0.1018
  sH5   CK   1       0.2911   0.1018
  sH5   CM   1       0.2911   0.1018
  sH5   CN   1       0.2911   0.1018
  sH5   CQ   1       0.2911   0.1018
  sH5   CR   1       0.2911   0.1018
  sH5   CT   1       0.2911   0.1149
  sH5   C1   1       0.2911   0.1149
  sH5   C3   1       0.2911   0.1149
  sH5   C4   1       0.2911   0.1149
  sH5   C7   1       0.2911   0.1149
  sH5   C8   1       0.2911   0.1149
  sH5   C9   1       0.2911   0.1149
  sH5   CV   1       0.2911   0.1018
  sH5   CW   1       0.2911   0.1018
  sH5   C*   1       0.2911   0.1018
  sH5   C0   1       0.2737   0.2355
  sH5    F   1       0.2770   0.0858
  sH5    H   1       0.1745   0.0435
  sH5   HB   1       0.1745   0.0435
  sH5   HC   1       0.2535   0.0435
  sH5   H1   1       0.2446   0.0435
  sH5   H2   1       0.2357   0.0435
  sH5   H3   1       0.2268   0.0435
  sH5   HA   1       0.2511   0.0425
  sH5   H4   1       0.2466   0.0425
  sH5   H5   1       0.2421   0.0425
  sH5   HO   1       0.1211   0.0000
  sH5   HS   1       0.1745   0.0435
  sH5   HW   1       0.1211   0.0000
  sH5   HP   1       0.2191   0.0435
  sH5    I   1       0.3304   0.2196
  sH5   Cl   1       0.3411   0.1098
  sH5   Na   1       0.2875   0.0183
  sH5   IB   1       0.5665   0.1098
  sH5   MG   1       0.1917   0.3285
  sH5    N   1       0.2836   0.1432
  sH5   NA   1       0.2836   0.1432
  sH5   NB   1       0.2836   0.1432
  sH5   NC   1       0.2836   0.1432
  sH5   N2   1       0.2836   0.1432
  sH5   N3   1       0.2836   0.1432
  sH5   N*   1       0.2836   0.1432
  sH5    O   1       0.2691   0.1591
  sH5   OB   1       0.2691   0.1591
  sH5   OW   1       0.2786   0.1354
  sH5   OH   1       0.2744   0.1593
  sH5   O3   1       0.2744   0.1593
  sH5   OS   1       0.2711   0.1432
  sH5   O2   1       0.2691   0.1591
  sH5    P   1       0.3082   0.1553
  sH5    S   1       0.2993   0.1736
  sH5   SH   1       0.2993   0.1736
  sH5   CU   1       0.2911   0.1018
  sH5   FE   1       0.1211   0.0000
  sH5    K   1       0.3579   0.0063
  sH5   Rb   1       0.3844   0.0045
  sH5   Li   1       0.2224   0.0470
  sH5   Zn   1       0.2191   0.0388
  sH5 HW_tip4pew   1       0.1211   0.0000
  sH5 OW_tip4pew   1       0.2793   0.1401
  sH5 HW_tip4p   1       0.1211   0.0000
  sH5 OW_tip4p   1       0.2788   0.1367
  sH5 HW_tip5p   1       0.1211   0.0000
  sH5 OW_tip5p   1       0.2771   0.1389
  sH5 HW_tip4pd   1       0.1211   0.0000
  sH5 OW_tip4pd   1       0.2793   0.1697
  sH5   MW   1       0.1211   0.0000
  sH5 MCH3   1       0.1211   0.0000
  sH5 MNH3   1       0.1211   0.0000
  sH5   c3   1       0.2911   0.1149
  sH5   hc   1       0.2535   0.0435
  sH5    c   1       0.2911   0.1018
  sH5    o   1       0.2691   0.1591
  sH5    n   1       0.2836   0.1432
  sH5   h1   1       0.2446   0.0435
  sH5   ca   1       0.2911   0.1018
  sH5   ha   1       0.2511   0.0425
  sH5   n3   1       0.2836   0.1432
  sH5   hx   1       0.2191   0.0435
  sH5   n4   1       0.2836   0.1432
  sH5   hn   1       0.1745   0.0435
  sHO   Br   1       0.0000   0.0000
  sHO    C   1       0.1700   0.0000
  sHO   C6   1       0.1700   0.0000
  sHO   C5   1       0.1700   0.0000
  sHO   CA   1       0.1700   0.0000
  sHO   CB   1       0.1700   0.0000
  sHO   CC   1       0.1700   0.0000
  sHO   CK   1       0.1700   0.0000
  sHO   CM   1       0.1700   0.0000
  sHO   CN   1       0.1700   0.0000
  sHO   CQ   1       0.1700   0.0000
  sHO   CR   1       0.1700   0.0000
  sHO   CT   1       0.1700   0.0000
  sHO   C1   1       0.1700   0.0000
  sHO   C3   1       0.1700   0.0000
  sHO   C4   1       0.1700   0.0000
  sHO   C7   1       0.1700   0.0000
  sHO   C8   1       0.1700   0.0000
  sHO   C9   1       0.1700   0.0000
  sHO   CV   1       0.1700   0.0000
  sHO   CW   1       0.1700   0.0000
  sHO   C*   1       0.1700   0.0000
  sHO   C0   1       0.1526   0.0000
  sHO    F   1       0.1559   0.0000
  sHO    H   1       0.0535   0.0000
  sHO   HB   1       0.0535   0.0000
  sHO   HC   1       0.1325   0.0000
  sHO   H1   1       0.1236   0.0000
  sHO   H2   1       0.1147   0.0000
  sHO   H3   1       0.1057   0.0000
  sHO   HA   1       0.1300   0.0000
  sHO   H4   1       0.1255   0.0000
  sHO   H5   1       0.1211   0.0000
  sHO   HO   1       0.0000   0.0000
  sHO   HS   1       0.0535   0.0000
  sHO   HW   1       0.0000   0.0000
  sHO   HP   1       0.0980   0.0000
  sHO    I   1       0.2094   0.0000
  sHO   Cl   1       0.2201   0.0000
  sHO   Na   1       0.1664   0.0000
  sHO   IB   1       0.4454   0.0000
  sHO   MG   1       0.0706   0.0000
  sHO    N   1       0.1625   0.0000
  sHO   NA   1       0.1625   0.0000
  sHO   NB   1       0.1625   0.0000
  sHO   NC   1       0.1625   0.0000
  sHO   N2   1       0.1625   0.0000
  sHO   N3   1       0.1625   0.0000
  sHO   N*   1       0.1625   0.0000
  sHO    O   1       0.1480   0.0000
  sHO   OB   1       0.1480   0.0000
  sHO   OW   1       0.1575   0.0000
  sHO   OH   1       0.1533   0.0000
  sHO   O3   1       0.1533   0.0000
  sHO   OS   1       0.1500   0.0000
  sHO   O2   1       0.1480   0.0000
  sHO    P   1       0.1871   0.0000
  sHO    S   1       0.1782   0.0000
  sHO   SH   1       0.1782   0.0000
  sHO   CU   1       0.1700   0.0000
  sHO   FE   1       0.0000   0.0000
  sHO    K   1       0.2368   0.0000
  sHO   Rb   1       0.2633   0.0000
  sHO   Li   1       0.1013   0.0000
  sHO   Zn   1       0.0980   0.0000
  sHO HW_tip4pew   1       0.0000   0.0000
  sHO OW_tip4pew   1       0.1582   0.0000
  sHO HW_tip4p   1       0.0000   0.0000
  sHO OW_tip4p   1       0.1577   0.0000
  sHO HW_tip5p   1       0.0000   0.0000
  sHO OW_tip5p   1       0.1560   0.0000
  sHO HW_tip4pd   1       0.0000   0.0000
  sHO OW_tip4pd   1       0.1583   0.0000
  sHO   MW   1       0.0000   0.0000
  sHO MCH3   1       0.0000   0.0000
  sHO MNH3   1       0.0000   0.0000
  sHO   c3   1       0.1700   0.0000
  sHO   hc   1       0.1325   0.0000
  sHO    c   1       0.1700   0.0000
  sHO    o   1       0.1480   0.0000
  sHO    n   1       0.1625   0.0000
  sHO   h1   1       0.1236   0.0000
  sHO   ca   1       0.1700   0.0000
  sHO   ha   1       0.1300   0.0000
  sHO   n3   1       0.1625   0.0000
  sHO   hx   1       0.0980   0.0000
  sHO   n4   1       0.1625   0.0000
  sHO   hn   1       0.0535   0.0000
  sHS   Br   1       0.0535   0.0000
  sHS    C   1       0.2234   0.1042
  sHS   C6   1       0.2234   0.1042
  sHS   C5   1       0.2234   0.1042
  sHS   CA   1       0.2234   0.1042
  sHS   CB   1       0.2234   0.1042
  sHS   CC   1       0.2234   0.1042
  sHS   CK   1       0.2234   0.1042
  sHS   CM   1       0.2234   0.1042
  sHS   CN   1       0.2234   0.1042
  sHS   CQ   1       0.2234   0.1042
  sHS   CR   1       0.2234   0.1042
  sHS   CT   1       0.2234   0.1175
  sHS   C1   1       0.2234   0.1175
  sHS   C3   1       0.2234   0.1175
  sHS   C4   1       0.2234   0.1175
  sHS   C7   1       0.2234   0.1175
  sHS   C8   1       0.2234   0.1175
  sHS   C9   1       0.2234   0.1175
  sHS   CV   1       0.2234   0.1042
  sHS   CW   1       0.2234   0.1042
  sHS   C*   1       0.2234   0.1042
  sHS   C0   1       0.2061   0.2409
  sHS    F   1       0.2094   0.0877
  sHS    H   1       0.1069   0.0445
  sHS   HB   1       0.1069   0.0445
  sHS   HC   1       0.1859   0.0445
  sHS   H1   1       0.1770   0.0445
  sHS   H2   1       0.1681   0.0445
  sHS   H3   1       0.1592   0.0445
  sHS   HA   1       0.1834   0.0435
  sHS   H4   1       0.1790   0.0435
  sHS   H5   1       0.1745   0.0435
  sHS   HO   1       0.0535   0.0000
  sHS   HS   1       0.1069   0.0445
  sHS   HW   1       0.0535   0.0000
  sHS   HP   1       0.1515   0.0445
  sHS    I   1       0.2628   0.2247
  sHS   Cl   1       0.2735   0.1124
  sHS   Na   1       0.2199   0.0187
  sHS   IB   1       0.4989   0.1124
  sHS   MG   1       0.1241   0.3361
  sHS    N   1       0.2160   0.1465
  sHS   NA   1       0.2160   0.1465
  sHS   NB   1       0.2160   0.1465
  sHS   NC   1       0.2160   0.1465
  sHS   N2   1       0.2160   0.1465
  sHS   N3   1       0.2160   0.1465
  sHS   N*   1       0.2160   0.1465
  sHS    O   1       0.2014   0.1628
  sHS   OB   1       0.2014   0.1628
  sHS   OW   1       0.2110   0.1386
  sHS   OH   1       0.2068   0.1630
  sHS   O3   1       0.2068   0.1630
  sHS   OS   1       0.2035   0.1465
  sHS   O2   1       0.2014   0.1628
  sHS    P   1       0.2405   0.1589
  sHS    S   1       0.2316   0.1776
  sHS   SH   1       0.2316   0.1776
  sHS   CU   1       0.2234   0.1042
  sHS   FE   1       0.0535   0.0000
  sHS    K   1       0.2903   0.0064
  sHS   Rb   1       0.3168   0.0046
  sHS   Li   1       0.1547   0.0481
  sHS   Zn   1       0.1515   0.0397
  sHS HW_tip4pew   1       0.0535   0.0000
  sHS OW_tip4pew   1       0.2117   0.1433
  sHS HW_tip4p   1       0.0535   0.0000
  sHS OW_tip4p   1       0.2111   0.1399
  sHS HW_tip5p   1       0.0535   0.0000
  sHS OW_tip5p   1       0.2095   0.1421
  sHS HW_tip4pd   1       0.0535   0.0000
  sHS OW_tip4pd   1       0.2117   0.1736
  sHS   MW   1       0.0535   0.0000
  sHS MCH3   1       0.0535   0.0000
  sHS MNH3   1       0.0535   0.0000
  sHS   c3   1       0.2234   0.1175
  sHS   hc   1       0.1859   0.0445
  sHS    c   1       0.2234   0.1042
  sHS    o   1       0.2014   0.1628
  sHS    n   1       0.2160   0.1465
  sHS   h1   1       0.1770   0.0445
  sHS   ca   1       0.2234   0.1042
  sHS   ha   1       0.1834   0.0435
  sHS   n3   1       0.2160   0.1465
  sHS   hx   1       0.1515   0.0445
  sHS   n4   1       0.2160   0.1465
  sHS   hn   1       0.1069   0.0445
  sHW   Br   1       0.0000   0.0000
  sHW    C   1       0.1700   0.0000
  sHW   C6   1       0.1700   0.0000
  sHW   C5   1       0.1700   0.0000
  sHW   CA   1       0.1700   0.0000
  sHW   CB   1       0.1700   0.0000
  sHW   CC   1       0.1700   0.0000
  sHW   CK   1       0.1700   0.0000
  sHW   CM   1       0.1700   0.0000
  sHW   CN   1       0.1700   0.0000
  sHW   CQ   1       0.1700   0.0000
  sHW   CR   1       0.1700   0.0000
  sHW   CT   1       0.1700   0.0000
  sHW   C1   1       0.1700   0.0000
  sHW   C3   1       0.1700   0.0000
  sHW   C4   1       0.1700   0.0000
  sHW   C7   1       0.1700   0.0000
  sHW   C8   1       0.1700   0.0000
  sHW   C9   1       0.1700   0.0000
  sHW   CV   1       0.1700   0.0000
  sHW   CW   1       0.1700   0.0000
  sHW   C*   1       0.1700   0.0000
  sHW   C0   1       0.1526   0.0000
  sHW    F   1       0.1559   0.0000
  sHW    H   1       0.0535   0.0000
  sHW   HB   1       0.0535   0.0000
  sHW   HC   1       0.1325   0.0000
  sHW   H1   1       0.1236   0.0000
  sHW   H2   1       0.1147   0.0000
  sHW   H3   1       0.1057   0.0000
  sHW   HA   1       0.1300   0.0000
  sHW   H4   1       0.1255   0.0000
  sHW   H5   1       0.1211   0.0000
  sHW   HO   1       0.0000   0.0000
  sHW   HS   1       0.0535   0.0000
  sHW   HW   1       0.0000   0.0000
  sHW   HP   1       0.0980   0.0000
  sHW    I   1       0.2094   0.0000
  sHW   Cl   1       0.2201   0.0000
  sHW   Na   1       0.1664   0.0000
  sHW   IB   1       0.4454   0.0000
  sHW   MG   1       0.0706   0.0000
  sHW    N   1       0.1625   0.0000
  sHW   NA   1       0.1625   0.0000
  sHW   NB   1       0.1625   0.0000
  sHW   NC   1       0.1625   0.0000
  sHW   N2   1       0.1625   0.0000
  sHW   N3   1       0.1625   0.0000
  sHW   N*   1       0.1625   0.0000
  sHW    O   1       0.1480   0.0000
  sHW   OB   1       0.1480   0.0000
  sHW   OW   1       0.1575   0.0000
  sHW   OH   1       0.1533   0.0000
  sHW   O3   1       0.1533   0.0000
  sHW   OS   1       0.1500   0.0000
  sHW   O2   1       0.1480   0.0000
  sHW    P   1       0.1871   0.0000
  sHW    S   1       0.1782   0.0000
  sHW   SH   1       0.1782   0.0000
  sHW   CU   1       0.1700   0.0000
  sHW   FE   1       0.0000   0.0000
  sHW    K   1       0.2368   0.0000
  sHW   Rb   1       0.2633   0.0000
  sHW   Li   1       0.1013   0.0000
  sHW   Zn   1       0.0980   0.0000
  sHW HW_tip4pew   1       0.0000   0.0000
  sHW OW_tip4pew   1       0.1582   0.0000
  sHW HW_tip4p   1       0.0000   0.0000
  sHW OW_tip4p   1       0.1577   0.0000
  sHW HW_tip5p   1       0.0000   0.0000
  sHW OW_tip5p   1       0.1560   0.0000
  sHW HW_tip4pd   1       0.0000   0.0000
  sHW OW_tip4pd   1       0.1583   0.0000
  sHW   MW   1       0.0000   0.0000
  sHW MCH3   1       0.0000   0.0000
  sHW MNH3   1       0.0000   0.0000
  sHW   c3   1       0.1700   0.0000
  sHW   hc   1       0.1325   0.0000
  sHW    c   1       0.1700   0.0000
  sHW    o   1       0.1480   0.0000
  sHW    n   1       0.1625   0.0000
  sHW   h1   1       0.1236   0.0000
  sHW   ca   1       0.1700   0.0000
  sHW   ha   1       0.1300   0.0000
  sHW   n3   1       0.1625   0.0000
  sHW   hx   1       0.0980   0.0000
  sHW   n4   1       0.1625   0.0000
  sHW   hn   1       0.0535   0.0000
  sHP   Br   1       0.0980   0.0000
  sHP    C   1       0.2680   0.1042
  sHP   C6   1       0.2680   0.1042
  sHP   C5   1       0.2680   0.1042
  sHP   CA   1       0.2680   0.1042
  sHP   CB   1       0.2680   0.1042
  sHP   CC   1       0.2680   0.1042
  sHP   CK   1       0.2680   0.1042
  sHP   CM   1       0.2680   0.1042
  sHP   CN   1       0.2680   0.1042
  sHP   CQ   1       0.2680   0.1042
  sHP   CR   1       0.2680   0.1042
  sHP   CT   1       0.2680   0.1175
  sHP   C1   1       0.2680   0.1175
  sHP   C3   1       0.2680   0.1175
  sHP   C4   1       0.2680   0.1175
  sHP   C7   1       0.2680   0.1175
  sHP   C8   1       0.2680   0.1175
  sHP   C9   1       0.2680   0.1175
  sHP   CV   1       0.2680   0.1042
  sHP   CW   1       0.2680   0.1042
  sHP   C*   1       0.2680   0.1042
  sHP   C0   1       0.2506   0.2409
  sHP    F   1       0.2539   0.0877
  sHP    H   1       0.1515   0.0445
  sHP   HB   1       0.1515   0.0445
  sHP   HC   1       0.2305   0.0445
  sHP   H1   1       0.2216   0.0445
  sHP   H2   1       0.2127   0.0445
  sHP   H3   1       0.2037   0.0445
  sHP   HA   1       0.2280   0.0435
  sHP   H4   1       0.2235   0.0435
  sHP   H5   1       0.2191   0.0435
  sHP   HO   1       0.0980   0.0000
  sHP   HS   1       0.1515   0.0445
  sHP   HW   1       0.0980   0.0000
  sHP   HP   1       0.1960   0.0445
  sHP    I   1       0.3074   0.2247
  sHP   Cl   1       0.3181   0.1124
  sHP   Na   1       0.2644   0.0187
  sHP   IB   1       0.5434   0.1124
  sHP   MG   1       0.1686   0.3361
  sHP    N   1       0.2605   0.1465
  sHP   NA   1       0.2605   0.1465
  sHP   NB   1       0.2605   0.1465
  sHP   NC   1       0.2605   0.1465
  sHP   N2   1       0.2605   0.1465
  sHP   N3   1       0.2605   0.1465
  sHP   N*   1       0.2605   0.1465
  sHP    O   1       0.2460   0.1628
  sHP   OB   1       0.2460   0.1628
  sHP   OW   1       0.2555   0.1386
  sHP   OH   1       0.2513   0.1630
  sHP   O3   1       0.2513   0.1630
  sHP   OS   1       0.2480   0.1465
  sHP   O2   1       0.2460   0.1628
  sHP    P   1       0.2851   0.1589
  sHP    S   1       0.2762   0.1776
  sHP   SH   1       0.2762   0.1776
  sHP   CU   1       0.2680   0.1042
  sHP   FE   1       0.0980   0.0000
  sHP    K   1       0.3348   0.0064
  sHP   Rb   1       0.3613   0.0046
  sHP   Li   1       0.1993   0.0481
  sHP   Zn   1       0.1960   0.0397
  sHP HW_tip4pew   1       0.0980   0.0000
  sHP OW_tip4pew   1       0.2562   0.1433
  sHP HW_tip4p   1       0.0980   0.0000
  sHP OW_tip4p   1       0.2557   0.1399
  sHP HW_tip5p   1       0.0980   0.0000
  sHP OW_tip5p   1       0.2540   0.1421
  sHP HW_tip4pd   1       0.0980   0.0000
  sHP OW_tip4pd   1       0.2562   0.1736
  sHP   MW   1       0.0980   0.0000
  sHP MCH3   1       0.0980   0.0000
  sHP MNH3   1       0.0980   0.0000
  sHP   c3   1       0.2680   0.1175
  sHP   hc   1       0.2305   0.0445
  sHP    c   1       0.2680   0.1042
  sHP    o   1       0.2460   0.1628
  sHP    n   1       0.2605   0.1465
  sHP   h1   1       0.2216   0.0445
  sHP   ca   1       0.2680   0.1042
  sHP   ha   1       0.2280   0.0435
  sHP   n3   1       0.2605   0.1465
  sHP   hx   1       0.1960   0.0445
  sHP   n4   1       0.2605   0.1465
  sHP   hn   1       0.1515   0.0445
   sI   Br   1       0.2094   0.0000
   sI    C   1       0.3793   0.5259
   sI   C6   1       0.3793   0.5259
   sI   C5   1       0.3793   0.5259
   sI   CA   1       0.3793   0.5259
   sI   CB   1       0.3793   0.5259
   sI   CC   1       0.3793   0.5259
   sI   CK   1       0.3793   0.5259
   sI   CM   1       0.3793   0.5259
   sI   CN   1       0.3793   0.5259
   sI   CQ   1       0.3793   0.5259
   sI   CR   1       0.3793   0.5259
   sI   CT   1       0.3793   0.5931
   sI   C1   1       0.3793   0.5931
   sI   C3   1       0.3793   0.5931
   sI   C4   1       0.3793   0.5931
   sI   C7   1       0.3793   0.5931
   sI   C8   1       0.3793   0.5931
   sI   C9   1       0.3793   0.5931
   sI   CV   1       0.3793   0.5259
   sI   CW   1       0.3793   0.5259
   sI   C*   1       0.3793   0.5259
   sI   C0   1       0.3620   1.2160
   sI    F   1       0.3653   0.4429
   sI    H   1       0.2628   0.2247
   sI   HB   1       0.2628   0.2247
   sI   HC   1       0.3418   0.2247
   sI   H1   1       0.3329   0.2247
   sI   H2   1       0.3240   0.2247
   sI   H3   1       0.3151   0.2247
   sI   HA   1       0.3393   0.2196
   sI   H4   1       0.3349   0.2196
   sI   H5   1       0.3304   0.2196
   sI   HO   1       0.2094   0.0000
   sI   HS   1       0.2628   0.2247
   sI   HW   1       0.2094   0.0000
   sI   HP   1       0.3074   0.2247
   sI    I   1       0.4187   1.1342
   sI   Cl   1       0.4294   0.5671
   sI   Na   1       0.3758   0.0944
   sI   IB   1       0.6548   0.5671
   sI   MG   1       0.2800   1.6963
   sI    N   1       0.3719   0.7394
   sI   NA   1       0.3719   0.7394
   sI   NB   1       0.3719   0.7394
   sI   NC   1       0.3719   0.7394
   sI   N2   1       0.3719   0.7394
   sI   N3   1       0.3719   0.7394
   sI   N*   1       0.3719   0.7394
   sI    O   1       0.3574   0.8218
   sI   OB   1       0.3574   0.8218
   sI   OW   1       0.3669   0.6994
   sI   OH   1       0.3627   0.8226
   sI   O3   1       0.3627   0.8226
   sI   OS   1       0.3594   0.7394
   sI   O2   1       0.3574   0.8218
   sI    P   1       0.3964   0.8020
   sI    S   1       0.3875   0.8967
   sI   SH   1       0.3875   0.8967
   sI   CU   1       0.3793   0.5259
   sI   FE   1       0.2094   0.0000
   sI    K   1       0.4462   0.0325
   sI   Rb   1       0.4727   0.0234
   sI   Li   1       0.3107   0.2426
   sI   Zn   1       0.3074   0.2005
   sI HW_tip4pew   1       0.2094   0.0000
   sI OW_tip4pew   1       0.3676   0.7235
   sI HW_tip4p   1       0.2094   0.0000
   sI OW_tip4p   1       0.3670   0.7060
   sI HW_tip5p   1       0.2094   0.0000
   sI OW_tip5p   1       0.3654   0.7173
   sI HW_tip4pd   1       0.2094   0.0000
   sI OW_tip4pd   1       0.3676   0.8763
   sI   MW   1       0.2094   0.0000
   sI MCH3   1       0.2094   0.0000
   sI MNH3   1       0.2094   0.0000
   sI   c3   1       0.3793   0.5931
   sI   hc   1       0.3418   0.2247
   sI    c   1       0.3793   0.5259
   sI    o   1       0.3574   0.8218
   sI    n   1       0.3719   0.7394
   sI   h1   1       0.3329   0.2247
   sI   ca   1       0.3793   0.5259
   sI   ha   1       0.3393   0.2196
   sI   n3   1       0.3719   0.7394
   sI   hx   1       0.3074   0.2247
   sI   n4   1       0.3719   0.7394
   sI   hn   1       0.2628   0.2247
  sCl   Br   1       0.2201   0.0000
  sCl    C   1       0.3900   0.2630
  sCl   C6   1       0.3900   0.2630
  sCl   C5   1       0.3900   0.2630
  sCl   CA   1       0.3900   0.2630
  sCl   CB   1       0.3900   0.2630
  sCl   CC   1       0.3900   0.2630
  sCl   CK   1       0.3900   0.2630
  sCl   CM   1       0.3900   0.2630
  sCl   CN   1       0.3900   0.2630
  sCl   CQ   1       0.3900   0.2630
  sCl   CR   1       0.3900   0.2630
  sCl   CT   1       0.3900   0.2966
  sCl   C1   1       0.3900   0.2966
  sCl   C3   1       0.3900   0.2966
  sCl   C4   1       0.3900   0.2966
  sCl   C7   1       0.3900   0.2966
  sCl   C8   1       0.3900   0.2966
  sCl   C9   1       0.3900   0.2966
  sCl   CV   1       0.3900   0.2630
  sCl   CW   1       0.3900   0.2630
  sCl   C*   1       0.3900   0.2630
  sCl   C0   1       0.3727   0.6080
  sCl    F   1       0.3760   0.2215
  sCl    H   1       0.2735   0.1124
  sCl   HB   1       0.2735   0.1124
  sCl   HC   1       0.3525   0.1124
  sCl   H1   1       0.3436   0.1124
  sCl   H2   1       0.3347   0.1124
  sCl   H3   1       0.3258   0.1124
  sCl   HA   1       0.3500   0.1098
  sCl   H4   1       0.3456   0.1098
  sCl   H5   1       0.3411   0.1098
  sCl   HO   1       0.2201   0.0000
  sCl   HS   1       0.2735   0.1124
  sCl   HW   1       0.2201   0.0000
  sCl   HP   1       0.3181   0.1124
  sCl    I   1       0.4294   0.5671
  sCl   Cl   1       0.4401   0.2835
  sCl   Na   1       0.3865   0.0472
  sCl   IB   1       0.6655   0.2835
  sCl   MG   1       0.2907   0.8481
  sCl    N   1       0.3826   0.3697
  sCl   NA   1       0.3826   0.3697
  sCl   NB   1       0.3826   0.3697
  sCl   NC   1       0.3826   0.3697
  sCl   N2   1       0.3826   0.3697
  sCl   N3   1       0.3826   0.3697
  sCl   N*   1       0.3826   0.3697
  sCl    O   1       0.3680   0.4109
  sCl   OB   1       0.3680   0.4109
  sCl   OW   1       0.3776   0.3497
  sCl   OH   1       0.3734   0.4113
  sCl   O3   1       0.3734   0.4113
  sCl   OS   1       0.3701   0.3697
  sCl   O2   1       0.3680   0.4109
  sCl    P   1       0.4071   0.4010
  sCl    S   1       0.3982   0.4483
  sCl   SH   1       0.3982   0.4483
  sCl   CU   1       0.3900   0.2630
  sCl   FE   1       0.2201   0.0000
  sCl    K   1       0.4569   0.0162
  sCl   Rb   1       0.4834   0.0117
  sCl   Li   1       0.3213   0.1213
  sCl   Zn   1       0.3181   0.1002
  sCl HW_tip4pew   1       0.2201   0.0000
  sCl OW_tip4pew   1       0.3783   0.3617
  sCl HW_tip4p   1       0.2201   0.0000
  sCl OW_tip4p   1       0.3777   0.3530
  sCl HW_tip5p   1       0.2201   0.0000
  sCl OW_tip5p   1       0.3761   0.3587
  sCl HW_tip4pd   1       0.2201   0.0000
  sCl OW_tip4pd   1       0.3783   0.4381
  sCl   MW   1       0.2201   0.0000
  sCl MCH3   1       0.2201   0.0000
  sCl MNH3   1       0.2201   0.0000
  sCl   c3   1       0.3900   0.2966
  sCl   hc   1       0.3525   0.1124
  sCl    c   1       0.3900   0.2630
  sCl    o   1       0.3680   0.4109
  sCl    n   1       0.3826   0.3697
  sCl   h1   1       0.3436   0.1124
  sCl   ca   1       0.3900   0.2630
  sCl   ha   1       0.3500   0.1098
  sCl   n3   1       0.3826   0.3697
  sCl   hx   1       0.3181   0.1124
  sCl   n4   1       0.3826   0.3697
  sCl   hn   1       0.2735   0.1124
  sNa   Br   1       0.1664   0.0000
  sNa    C   1       0.3364   0.0438
  sNa   C6   1       0.3364   0.0438
  sNa   C5   1       0.3364   0.0438
  sNa   CA   1       0.3364   0.0438
  sNa   CB   1       0.3364   0.0438
  sNa   CC   1       0.3364   0.0438
  sNa   CK   1       0.3364   0.0438
  sNa   CM   1       0.3364   0.0438
  sNa   CN   1       0.3364   0.0438
  sNa   CQ   1       0.3364   0.0438
  sNa   CR   1       0.3364   0.0438
  sNa   CT   1       0.3364   0.0494
  sNa   C1   1       0.3364   0.0494
  sNa   C3   1       0.3364   0.0494
  sNa   C4   1       0.3364   0.0494
  sNa   C7   1       0.3364   0.0494
  sNa   C8   1       0.3364   0.0494
  sNa   C9   1       0.3364   0.0494
  sNa   CV   1       0.3364   0.0438
  sNa   CW   1       0.3364   0.0438
  sNa   C*   1       0.3364   0.0438
  sNa   C0   1       0.3190   0.1012
  sNa    F   1       0.3223   0.0369
  sNa    H   1       0.2199   0.0187
  sNa   HB   1       0.2199   0.0187
  sNa   HC   1       0.2989   0.0187
  sNa   H1   1       0.2900   0.0187
  sNa   H2   1       0.2811   0.0187
  sNa   H3   1       0.2722   0.0187
  sNa   HA   1       0.2964   0.0183
  sNa   H4   1       0.2919   0.0183
  sNa   H5   1       0.2875   0.0183
  sNa   HO   1       0.1664   0.0000
  sNa   HS   1       0.2199   0.0187
  sNa   HW   1       0.1664   0.0000
  sNa   HP   1       0.2644   0.0187
  sNa    I   1       0.3758   0.0944
  sNa   Cl   1       0.3865   0.0472
  sNa   Na   1       0.3328   0.0079
  sNa   IB   1       0.6119   0.0472
  sNa   MG   1       0.2370   0.1412
  sNa    N   1       0.3289   0.0615
  sNa   NA   1       0.3289   0.0615
  sNa   NB   1       0.3289   0.0615
  sNa   NC   1       0.3289   0.0615
  sNa   N2   1       0.3289   0.0615
  sNa   N3   1       0.3289   0.0615
  sNa   N*   1       0.3289   0.0615
  sNa    O   1       0.3144   0.0684
  sNa   OB   1       0.3144   0.0684
  sNa   OW   1       0.3240   0.0582
  sNa   OH   1       0.3197   0.0685
  sNa   O3   1       0.3197   0.0685
  sNa   OS   1       0.3164   0.0615
  sNa   O2   1       0.3144   0.0684
  sNa    P   1       0.3535   0.0667
  sNa    S   1       0.3446   0.0746
  sNa   SH   1       0.3446   0.0746
  sNa   CU   1       0.3364   0.0438
  sNa   FE   1       0.1664   0.0000
  sNa    K   1       0.4032   0.0027
  sNa   Rb   1       0.4298   0.0019
  sNa   Li   1       0.2677   0.0202
  sNa   Zn   1       0.2644   0.0167
  sNa HW_tip4pew   1       0.1664   0.0000
  sNa OW_tip4pew   1       0.3246   0.0602
  sNa HW_tip4p   1       0.1664   0.0000
  sNa OW_tip4p   1       0.3241   0.0588
  sNa HW_tip5p   1       0.1664   0.0000
  sNa OW_tip5p   1       0.3224   0.0597
  sNa HW_tip4pd   1       0.1664   0.0000
  sNa OW_tip4pd   1       0.3247   0.0729
  sNa   MW   1       0.1664   0.0000
  sNa MCH3   1       0.1664   0.0000
  sNa MNH3   1       0.1664   0.0000
  sNa   c3   1       0.3364   0.0494
  sNa   hc   1       0.2989   0.0187
  sNa    c   1       0.3364   0.0438
  sNa    o   1       0.3144   0.0684
  sNa    n   1       0.3289   0.0615
  sNa   h1   1       0.2900   0.0187
  sNa   ca   1       0.3364   0.0438
  sNa   ha   1       0.2964   0.0183
  sNa   n3   1       0.3289   0.0615
  sNa   hx   1       0.2644   0.0187
  sNa   n4   1       0.3289   0.0615
  sNa   hn   1       0.2199   0.0187
  sIB   Br   1       0.4454   0.0000
  sIB    C   1       0.6154   0.2630
  sIB   C6   1       0.6154   0.2630
  sIB   C5   1       0.6154   0.2630
  sIB   CA   1       0.6154   0.2630
  sIB   CB   1       0.6154   0.2630
  sIB   CC   1       0.6154   0.2630
  sIB   CK   1       0.6154   0.2630
  sIB   CM   1       0.6154   0.2630
  sIB   CN   1       0.6154   0.2630
  sIB   CQ   1       0.6154   0.2630
  sIB   CR   1       0.6154   0.2630
  sIB   CT   1       0.6154   0.2966
  sIB   C1   1       0.6154   0.2966
  sIB   C3   1       0.6154   0.2966
  sIB   C4   1       0.6154   0.2966
  sIB   C7   1       0.6154   0.2966
  sIB   C8   1       0.6154   0.2966
  sIB   C9   1       0.6154   0.2966
  sIB   CV   1       0.6154   0.2630
  sIB   CW   1       0.6154   0.2630
  sIB   C*   1       0.6154   0.2630
  sIB   C0   1       0.5981   0.6080
  sIB    F   1       0.6014   0.2215
  sIB    H   1       0.4989   0.1124
  sIB   HB   1       0.4989   0.1124
  sIB   HC   1       0.5779   0.1124
  sIB   H1   1       0.5690   0.1124
  sIB   H2   1       0.5601   0.1124
  sIB   H3   1       0.5512   0.1124
  sIB   HA   1       0.5754   0.1098
  sIB   H4   1       0.5710   0.1098
  sIB   H5   1       0.5665   0.1098
  sIB   HO   1       0.4454   0.0000
  sIB   HS   1       0.4989   0.1124
  sIB   HW   1       0.4454   0.0000
  sIB   HP   1       0.5434   0.1124
  sIB    I   1       0.6548   0.5671
  sIB   Cl   1       0.6655   0.2835
  sIB   Na   1       0.6119   0.0472
  sIB   IB   1       0.8909   0.2835
  sIB   MG   1       0.5161   0.8481
  sIB    N   1       0.6079   0.3697
  sIB   NA   1       0.6079   0.3697
  sIB   NB   1       0.6079   0.3697
  sIB   NC   1       0.6079   0.3697
  sIB   N2   1       0.6079   0.3697
  sIB   N3   1       0.6079   0.3697
  sIB   N*   1       0.6079   0.3697
  sIB    O   1       0.5934   0.4109
  sIB   OB   1       0.5934   0.4109
  sIB   OW   1       0.6030   0.3497
  sIB   OH   1       0.5988   0.4113
  sIB   O3   1       0.5988   0.4113
  sIB   OS   1       0.5954   0.3697
  sIB   O2   1       0.5934   0.4109
  sIB    P   1       0.6325   0.4010
  sIB    S   1       0.6236   0.4483
  sIB   SH   1       0.6236   0.4483
  sIB   CU   1       0.6154   0.2630
  sIB   FE   1       0.4454   0.0000
  sIB    K   1       0.6823   0.0162
  sIB   Rb   1       0.7088   0.0117
  sIB   Li   1       0.5467   0.1213
  sIB   Zn   1       0.5434   0.1002
  sIB HW_tip4pew   1       0.4454   0.0000
  sIB OW_tip4pew   1       0.6037   0.3617
  sIB HW_tip4p   1       0.4454   0.0000
  sIB OW_tip4p   1       0.6031   0.3530
  sIB HW_tip5p   1       0.4454   0.0000
  sIB OW_tip5p   1       0.6014   0.3587
  sIB HW_tip4pd   1       0.4454   0.0000
  sIB OW_tip4pd   1       0.6037   0.4381
  sIB   MW   1       0.4454   0.0000
  sIB MCH3   1       0.4454   0.0000
  sIB MNH3   1       0.4454   0.0000
  sIB   c3   1       0.6154   0.2966
  sIB   hc   1       0.5779   0.1124
  sIB    c   1       0.6154   0.2630
  sIB    o   1       0.5934   0.4109
  sIB    n   1       0.6079   0.3697
  sIB   h1   1       0.5690   0.1124
  sIB   ca   1       0.6154   0.2630
  sIB   ha   1       0.5754   0.1098
  sIB   n3   1       0.6079   0.3697
  sIB   hx   1       0.5434   0.1124
  sIB   n4   1       0.6079   0.3697
  sIB   hn   1       0.4989   0.1124
  sMG   Br   1       0.0706   0.0000
  sMG    C   1       0.2406   0.7865
  sMG   C6   1       0.2406   0.7865
  sMG   C5   1       0.2406   0.7865
  sMG   CA   1       0.2406   0.7865
  sMG   CB   1       0.2406   0.7865
  sMG   CC   1       0.2406   0.7865
  sMG   CK   1       0.2406   0.7865
  sMG   CM   1       0.2406   0.7865
  sMG   CN   1       0.2406   0.7865
  sMG   CQ   1       0.2406   0.7865
  sMG   CR   1       0.2406   0.7865
  sMG   CT   1       0.2406   0.8871
  sMG   C1   1       0.2406   0.8871
  sMG   C3   1       0.2406   0.8871
  sMG   C4   1       0.2406   0.8871
  sMG   C7   1       0.2406   0.8871
  sMG   C8   1       0.2406   0.8871
  sMG   C9   1       0.2406   0.8871
  sMG   CV   1       0.2406   0.7865
  sMG   CW   1       0.2406   0.7865
  sMG   C*   1       0.2406   0.7865
  sMG   C0   1       0.2232   1.8186
  sMG    F   1       0.2265   0.6624
  sMG    H   1       0.1241   0.3361
  sMG   HB   1       0.1241   0.3361
  sMG   HC   1       0.2031   0.3361
  sMG   H1   1       0.1942   0.3361
  sMG   H2   1       0.1853   0.3361
  sMG   H3   1       0.1764   0.3361
  sMG   HA   1       0.2006   0.3285
  sMG   H4   1       0.1961   0.3285
  sMG   H5   1       0.1917   0.3285
  sMG   HO   1       0.0706   0.0000
  sMG   HS   1       0.1241   0.3361
  sMG   HW   1       0.0706   0.0000
  sMG   HP   1       0.1686   0.3361
  sMG    I   1       0.2800   1.6963
  sMG   Cl   1       0.2907   0.8481
  sMG   Na   1       0.2370   0.1412
  sMG   IB   1       0.5161   0.8481
  sMG   MG   1       0.1412   2.5369
  sMG    N   1       0.2331   1.1058
  sMG   NA   1       0.2331   1.1058
  sMG   NB   1       0.2331   1.1058
  sMG   NC   1       0.2331   1.1058
  sMG   N2   1       0.2331   1.1058
  sMG   N3   1       0.2331   1.1058
  sMG   N*   1       0.2331   1.1058
  sMG    O   1       0.2186   1.2291
  sMG   OB   1       0.2186   1.2291
  sMG   OW   1       0.2281   1.0460
  sMG   OH   1       0.2239   1.2302
  sMG   O3   1       0.2239   1.2302
  sMG   OS   1       0.2206   1.1058
  sMG   O2   1       0.2186   1.2291
  sMG    P   1       0.2577   1.1994
  sMG    S   1       0.2488   1.3410
  sMG   SH   1       0.2488   1.3410
  sMG   CU   1       0.2406   0.7865
  sMG   FE   1       0.0706   0.0000
  sMG    K   1       0.3074   0.0486
  sMG   Rb   1       0.3340   0.0350
  sMG   Li   1       0.1719   0.3628
  sMG   Zn   1       0.1686   0.2999
  sMG HW_tip4pew   1       0.0706   0.0000
  sMG OW_tip4pew   1       0.2288   1.0820
  sMG HW_tip4p   1       0.0706   0.0000
  sMG OW_tip4p   1       0.2283   1.0559
  sMG HW_tip5p   1       0.0706   0.0000
  sMG OW_tip5p   1       0.2266   1.0728
  sMG HW_tip4pd   1       0.0706   0.0000
  sMG OW_tip4pd   1       0.2289   1.3105
  sMG   MW   1       0.0706   0.0000
  sMG MCH3   1       0.0706   0.0000
  sMG MNH3   1       0.0706   0.0000
  sMG   c3   1       0.2406   0.8871
  sMG   hc   1       0.2031   0.3361
  sMG    c   1       0.2406   0.7865
  sMG    o   1       0.2186   1.2291
  sMG    n   1       0.2331   1.1058
  sMG   h1   1       0.1942   0.3361
  sMG   ca   1       0.2406   0.7865
  sMG   ha   1       0.2006   0.3285
  sMG   n3   1       0.2331   1.1058
  sMG   hx   1       0.1686   0.3361
  sMG   n4   1       0.2331   1.1058
  sMG   hn   1       0.1241   0.3361
   sN   Br   1       0.1625   0.0000
   sN    C   1       0.3325   0.3428
   sN   C6   1       0.3325   0.3428
   sN   C5   1       0.3325   0.3428
   sN   CA   1       0.3325   0.3428
   sN   CB   1       0.3325   0.3428
   sN   CC   1       0.3325   0.3428
   sN   CK   1       0.3325   0.3428
   sN   CM   1       0.3325   0.3428
   sN   CN   1       0.3325   0.3428
   sN   CQ   1       0.3325   0.3428
   sN   CR   1       0.3325   0.3428
   sN   CT   1       0.3325   0.3867
   sN   C1   1       0.3325   0.3867
   sN   C3   1       0.3325   0.3867
   sN   C4   1       0.3325   0.3867
   sN   C7   1       0.3325   0.3867
   sN   C8   1       0.3325   0.3867
   sN   C9   1       0.3325   0.3867
   sN   CV   1       0.3325   0.3428
   sN   CW   1       0.3325   0.3428
   sN   C*   1       0.3325   0.3428
   sN   C0   1       0.3151   0.7927
   sN    F   1       0.3184   0.2887
   sN    H   1       0.2160   0.1465
   sN   HB   1       0.2160   0.1465
   sN   HC   1       0.2950   0.1465
   sN   H1   1       0.2861   0.1465
   sN   H2   1       0.2772   0.1465
   sN   H3   1       0.2682   0.1465
   sN   HA   1       0.2925   0.1432
   sN   H4   1       0.2880   0.1432
   sN   H5   1       0.2836   0.1432
   sN   HO   1       0.1625   0.0000
   sN   HS   1       0.2160   0.1465
   sN   HW   1       0.1625   0.0000
   sN   HP   1       0.2605   0.1465
   sN    I   1       0.3719   0.7394
   sN   Cl   1       0.3826   0.3697
   sN   Na   1       0.3289   0.0615
   sN   IB   1       0.6079   0.3697
   sN   MG   1       0.2331   1.1058
   sN    N   1       0.3250   0.4820
   sN   NA   1       0.3250   0.4820
   sN   NB   1       0.3250   0.4820
   sN   NC   1       0.3250   0.4820
   sN   N2   1       0.3250   0.4820
   sN   N3   1       0.3250   0.4820
   sN   N*   1       0.3250   0.4820
   sN    O   1       0.3105   0.5357
   sN   OB   1       0.3105   0.5357
   sN   OW   1       0.3200   0.4559
   sN   OH   1       0.3158   0.5363
   sN   O3   1       0.3158   0.5363
   sN   OS   1       0.3125   0.4820
   sN   O2   1       0.3105   0.5357
   sN    P   1       0.3496   0.5228
   sN    S   1       0.3407   0.5845
   sN   SH   1       0.3407   0.5845
   sN   CU   1       0.3325   0.3428
   sN   FE   1       0.1625   0.0000
   sN    K   1       0.3993   0.0212
   sN   Rb   1       0.4258   0.0152
   sN   Li   1       0.2638   0.1582
   sN   Zn   1       0.2605   0.1307
   sN HW_tip4pew   1       0.1625   0.0000
   sN OW_tip4pew   1       0.3207   0.4716
   sN HW_tip4p   1       0.1625   0.0000
   sN OW_tip4p   1       0.3202   0.4603
   sN HW_tip5p   1       0.1625   0.0000
   sN OW_tip5p   1       0.3185   0.4676
   sN HW_tip4pd   1       0.1625   0.0000
   sN OW_tip4pd   1       0.3207   0.5713
   sN   MW   1       0.1625   0.0000
   sN MCH3   1       0.1625   0.0000
   sN MNH3   1       0.1625   0.0000
   sN   c3   1       0.3325   0.3867
   sN   hc   1       0.2950   0.1465
   sN    c   1       0.3325   0.3428
   sN    o   1       0.3105   0.5357
   sN    n   1       0.3250   0.4820
   sN   h1   1       0.2861   0.1465
   sN   ca   1       0.3325   0.3428
   sN   ha   1       0.2925   0.1432
   sN   n3   1       0.3250   0.4820
   sN   hx   1       0.2605   0.1465
   sN   n4   1       0.3250   0.4820
   sN   hn   1       0.2160   0.1465
  sNA   Br   1       0.1625   0.0000
  sNA    C   1       0.3325   0.3428
  sNA   C6   1       0.3325   0.3428
  sNA   C5   1       0.3325   0.3428
  sNA   CA   1       0.3325   0.3428
  sNA   CB   1       0.3325   0.3428
  sNA   CC   1       0.3325   0.3428
  sNA   CK   1       0.3325   0.3428
  sNA   CM   1       0.3325   0.3428
  sNA   CN   1       0.3325   0.3428
  sNA   CQ   1       0.3325   0.3428
  sNA   CR   1       0.3325   0.3428
  sNA   CT   1       0.3325   0.3867
  sNA   C1   1       0.3325   0.3867
  sNA   C3   1       0.3325   0.3867
  sNA   C4   1       0.3325   0.3867
  sNA   C7   1       0.3325   0.3867
  sNA   C8   1       0.3325   0.3867
  sNA   C9   1       0.3325   0.3867
  sNA   CV   1       0.3325   0.3428
  sNA   CW   1       0.3325   0.3428
  sNA   C*   1       0.3325   0.3428
  sNA   C0   1       0.3151   0.7927
  sNA    F   1       0.3184   0.2887
  sNA    H   1       0.2160   0.1465
  sNA   HB   1       0.2160   0.1465
  sNA   HC   1       0.2950   0.1465
  sNA   H1   1       0.2861   0.1465
  sNA   H2   1       0.2772   0.1465
  sNA   H3   1       0.2682   0.1465
  sNA   HA   1       0.2925   0.1432
  sNA   H4   1       0.2880   0.1432
  sNA   H5   1       0.2836   0.1432
  sNA   HO   1       0.1625   0.0000
  sNA   HS   1       0.2160   0.1465
  sNA   HW   1       0.1625   0.0000
  sNA   HP   1       0.2605   0.1465
  sNA    I   1       0.3719   0.7394
  sNA   Cl   1       0.3826   0.3697
  sNA   Na   1       0.3289   0.0615
  sNA   IB   1       0.6079   0.3697
  sNA   MG   1       0.2331   1.1058
  sNA    N   1       0.3250   0.4820
  sNA   NA   1       0.3250   0.4820
  sNA   NB   1       0.3250   0.4820
  sNA   NC   1       0.3250   0.4820
  sNA   N2   1       0.3250   0.4820
  sNA   N3   1       0.3250   0.4820
  sNA   N*   1       0.3250   0.4820
  sNA    O   1       0.3105   0.5357
  sNA   OB   1       0.3105   0.5357
  sNA   OW   1       0.3200   0.4559
  sNA   OH   1       0.3158   0.5363
  sNA   O3   1       0.3158   0.5363
  sNA   OS   1       0.3125   0.4820
  sNA   O2   1       0.3105   0.5357
  sNA    P   1       0.3496   0.5228
  sNA    S   1       0.3407   0.5845
  sNA   SH   1       0.3407   0.5845
  sNA   CU   1       0.3325   0.3428
  sNA   FE   1       0.1625   0.0000
  sNA    K   1       0.3993   0.0212
  sNA   Rb   1       0.4258   0.0152
  sNA   Li   1       0.2638   0.1582
  sNA   Zn   1       0.2605   0.1307
  sNA HW_tip4pew   1       0.1625   0.0000
  sNA OW_tip4pew   1       0.3207   0.4716
  sNA HW_tip4p   1       0.1625   0.0000
  sNA OW_tip4p   1       0.3202   0.4603
  sNA HW_tip5p   1       0.1625   0.0000
  sNA OW_tip5p   1       0.3185   0.4676
  sNA HW_tip4pd   1       0.1625   0.0000
  sNA OW_tip4pd   1       0.3207   0.5713
  sNA   MW   1       0.1625   0.0000
  sNA MCH3   1       0.1625   0.0000
  sNA MNH3   1       0.1625   0.0000
  sNA   c3   1       0.3325   0.3867
  sNA   hc   1       0.2950   0.1465
  sNA    c   1       0.3325   0.3428
  sNA    o   1       0.3105   0.5357
  sNA    n   1       0.3250   0.4820
  sNA   h1   1       0.2861   0.1465
  sNA   ca   1       0.3325   0.3428
  sNA   ha   1       0.2925   0.1432
  sNA   n3   1       0.3250   0.4820
  sNA   hx   1       0.2605   0.1465
  sNA   n4   1       0.3250   0.4820
  sNA   hn   1       0.2160   0.1465
  sNB   Br   1       0.1625   0.0000
  sNB    C   1       0.3325   0.3428
  sNB   C6   1       0.3325   0.3428
  sNB   C5   1       0.3325   0.3428
  sNB   CA   1       0.3325   0.3428
  sNB   CB   1       0.3325   0.3428
  sNB   CC   1       0.3325   0.3428
  sNB   CK   1       0.3325   0.3428
  sNB   CM   1       0.3325   0.3428
  sNB   CN   1       0.3325   0.3428
  sNB   CQ   1       0.3325   0.3428
  sNB   CR   1       0.3325   0.3428
  sNB   CT   1       0.3325   0.3867
  sNB   C1   1       0.3325   0.3867
  sNB   C3   1       0.3325   0.3867
  sNB   C4   1       0.3325   0.3867
  sNB   C7   1       0.3325   0.3867
  sNB   C8   1       0.3325   0.3867
  sNB   C9   1       0.3325   0.3867
  sNB   CV   1       0.3325   0.3428
  sNB   CW   1       0.3325   0.3428
  sNB   C*   1       0.3325   0.3428
  sNB   C0   1       0.3151   0.7927
  sNB    F   1       0.3184   0.2887
  sNB    H   1       0.2160   0.1465
  sNB   HB   1       0.2160   0.1465
  sNB   HC   1       0.2950   0.1465
  sNB   H1   1       0.2861   0.1465
  sNB   H2   1       0.2772   0.1465
  sNB   H3   1       0.2682   0.1465
  sNB   HA   1       0.2925   0.1432
  sNB   H4   1       0.2880   0.1432
  sNB   H5   1       0.2836   0.1432
  sNB   HO   1       0.1625   0.0000
  sNB   HS   1       0.2160   0.1465
  sNB   HW   1       0.1625   0.0000
  sNB   HP   1       0.2605   0.1465
  sNB    I   1       0.3719   0.7394
  sNB   Cl   1       0.3826   0.3697
  sNB   Na   1       0.3289   0.0615
  sNB   IB   1       0.6079   0.3697
  sNB   MG   1       0.2331   1.1058
  sNB    N   1       0.3250   0.4820
  sNB   NA   1       0.3250   0.4820
  sNB   NB   1       0.3250   0.4820
  sNB   NC   1       0.3250   0.4820
  sNB   N2   1       0.3250   0.4820
  sNB   N3   1       0.3250   0.4820
  sNB   N*   1       0.3250   0.4820
  sNB    O   1       0.3105   0.5357
  sNB   OB   1       0.3105   0.5357
  sNB   OW   1       0.3200   0.4559
  sNB   OH   1       0.3158   0.5363
  sNB   O3   1       0.3158   0.5363
  sNB   OS   1       0.3125   0.4820
  sNB   O2   1       0.3105   0.5357
  sNB    P   1       0.3496   0.5228
  sNB    S   1       0.3407   0.5845
  sNB   SH   1       0.3407   0.5845
  sNB   CU   1       0.3325   0.3428
  sNB   FE   1       0.1625   0.0000
  sNB    K   1       0.3993   0.0212
  sNB   Rb   1       0.4258   0.0152
  sNB   Li   1       0.2638   0.1582
  sNB   Zn   1       0.2605   0.1307
  sNB HW_tip4pew   1       0.1625   0.0000
  sNB OW_tip4pew   1       0.3207   0.4716
  sNB HW_tip4p   1       0.1625   0.0000
  sNB OW_tip4p   1       0.3202   0.4603
  sNB HW_tip5p   1       0.1625   0.0000
  sNB OW_tip5p   1       0.3185   0.4676
  sNB HW_tip4pd   1       0.1625   0.0000
  sNB OW_tip4pd   1       0.3207   0.5713
  sNB   MW   1       0.1625   0.0000
  sNB MCH3   1       0.1625   0.0000
  sNB MNH3   1       0.1625   0.0000
  sNB   c3   1       0.3325   0.3867
  sNB   hc   1       0.2950   0.1465
  sNB    c   1       0.3325   0.3428
  sNB    o   1       0.3105   0.5357
  sNB    n   1       0.3250   0.4820
  sNB   h1   1       0.2861   0.1465
  sNB   ca   1       0.3325   0.3428
  sNB   ha   1       0.2925   0.1432
  sNB   n3   1       0.3250   0.4820
  sNB   hx   1       0.2605   0.1465
  sNB   n4   1       0.3250   0.4820
  sNB   hn   1       0.2160   0.1465
  sNC   Br   1       0.1625   0.0000
  sNC    C   1       0.3325   0.3428
  sNC   C6   1       0.3325   0.3428
  sNC   C5   1       0.3325   0.3428
  sNC   CA   1       0.3325   0.3428
  sNC   CB   1       0.3325   0.3428
  sNC   CC   1       0.3325   0.3428
  sNC   CK   1       0.3325   0.3428
  sNC   CM   1       0.3325   0.3428
  sNC   CN   1       0.3325   0.3428
  sNC   CQ   1       0.3325   0.3428
  sNC   CR   1       0.3325   0.3428
  sNC   CT   1       0.3325   0.3867
  sNC   C1   1       0.3325   0.3867
  sNC   C3   1       0.3325   0.3867
  sNC   C4   1       0.3325   0.3867
  sNC   C7   1       0.3325   0.3867
  sNC   C8   1       0.3325   0.3867
  sNC   C9   1       0.3325   0.3867
  sNC   CV   1       0.3325   0.3428
  sNC   CW   1       0.3325   0.3428
  sNC   C*   1       0.3325   0.3428
  sNC   C0   1       0.3151   0.7927
  sNC    F   1       0.3184   0.2887
  sNC    H   1       0.2160   0.1465
  sNC   HB   1       0.2160   0.1465
  sNC   HC   1       0.2950   0.1465
  sNC   H1   1       0.2861   0.1465
  sNC   H2   1       0.2772   0.1465
  sNC   H3   1       0.2682   0.1465
  sNC   HA   1       0.2925   0.1432
  sNC   H4   1       0.2880   0.1432
  sNC   H5   1       0.2836   0.1432
  sNC   HO   1       0.1625   0.0000
  sNC   HS   1       0.2160   0.1465
  sNC   HW   1       0.1625   0.0000
  sNC   HP   1       0.2605   0.1465
  sNC    I   1       0.3719   0.7394
  sNC   Cl   1       0.3826   0.3697
  sNC   Na   1       0.3289   0.0615
  sNC   IB   1       0.6079   0.3697
  sNC   MG   1       0.2331   1.1058
  sNC    N   1       0.3250   0.4820
  sNC   NA   1       0.3250   0.4820
  sNC   NB   1       0.3250   0.4820
  sNC   NC   1       0.3250   0.4820
  sNC   N2   1       0.3250   0.4820
  sNC   N3   1       0.3250   0.4820
  sNC   N*   1       0.3250   0.4820
  sNC    O   1       0.3105   0.5357
  sNC   OB   1       0.3105   0.5357
  sNC   OW   1       0.3200   0.4559
  sNC   OH   1       0.3158   0.5363
  sNC   O3   1       0.3158   0.5363
  sNC   OS   1       0.3125   0.4820
  sNC   O2   1       0.3105   0.5357
  sNC    P   1       0.3496   0.5228
  sNC    S   1       0.3407   0.5845
  sNC   SH   1       0.3407   0.5845
  sNC   CU   1       0.3325   0.3428
  sNC   FE   1       0.1625   0.0000
  sNC    K   1       0.3993   0.0212
  sNC   Rb   1       0.4258   0.0152
  sNC   Li   1       0.2638   0.1582
  sNC   Zn   1       0.2605   0.1307
  sNC HW_tip4pew   1       0.1625   0.0000
  sNC OW_tip4pew   1       0.3207   0.4716
  sNC HW_tip4p   1       0.1625   0.0000
  sNC OW_tip4p   1       0.3202   0.4603
  sNC HW_tip5p   1       0.1625   0.0000
  sNC OW_tip5p   1       0.3185   0.4676
  sNC HW_tip4pd   1       0.1625   0.0000
  sNC OW_tip4pd   1       0.3207   0.5713
  sNC   MW   1       0.1625   0.0000
  sNC MCH3   1       0.1625   0.0000
  sNC MNH3   1       0.1625   0.0000
  sNC   c3   1       0.3325   0.3867
  sNC   hc   1       0.2950   0.1465
  sNC    c   1       0.3325   0.3428
  sNC    o   1       0.3105   0.5357
  sNC    n   1       0.3250   0.4820
  sNC   h1   1       0.2861   0.1465
  sNC   ca   1       0.3325   0.3428
  sNC   ha   1       0.2925   0.1432
  sNC   n3   1       0.3250   0.4820
  sNC   hx   1       0.2605   0.1465
  sNC   n4   1       0.3250   0.4820
  sNC   hn   1       0.2160   0.1465
  sN2   Br   1       0.1625   0.0000
  sN2    C   1       0.3325   0.3428
  sN2   C6   1       0.3325   0.3428
  sN2   C5   1       0.3325   0.3428
  sN2   CA   1       0.3325   0.3428
  sN2   CB   1       0.3325   0.3428
  sN2   CC   1       0.3325   0.3428
  sN2   CK   1       0.3325   0.3428
  sN2   CM   1       0.3325   0.3428
  sN2   CN   1       0.3325   0.3428
  sN2   CQ   1       0.3325   0.3428
  sN2   CR   1       0.3325   0.3428
  sN2   CT   1       0.3325   0.3867
  sN2   C1   1       0.3325   0.3867
  sN2   C3   1       0.3325   0.3867
  sN2   C4   1       0.3325   0.3867
  sN2   C7   1       0.3325   0.3867
  sN2   C8   1       0.3325   0.3867
  sN2   C9   1       0.3325   0.3867
  sN2   CV   1       0.3325   0.3428
  sN2   CW   1       0.3325   0.3428
  sN2   C*   1       0.3325   0.3428
  sN2   C0   1       0.3151   0.7927
  sN2    F   1       0.3184   0.2887
  sN2    H   1       0.2160   0.1465
  sN2   HB   1       0.2160   0.1465
  sN2   HC   1       0.2950   0.1465
  sN2   H1   1       0.2861   0.1465
  sN2   H2   1       0.2772   0.1465
  sN2   H3   1       0.2682   0.1465
  sN2   HA   1       0.2925   0.1432
  sN2   H4   1       0.2880   0.1432
  sN2   H5   1       0.2836   0.1432
  sN2   HO   1       0.1625   0.0000
  sN2   HS   1       0.2160   0.1465
  sN2   HW   1       0.1625   0.0000
  sN2   HP   1       0.2605   0.1465
  sN2    I   1       0.3719   0.7394
  sN2   Cl   1       0.3826   0.3697
  sN2   Na   1       0.3289   0.0615
  sN2   IB   1       0.6079   0.3697
  sN2   MG   1       0.2331   1.1058
  sN2    N   1       0.3250   0.4820
  sN2   NA   1       0.3250   0.4820
  sN2   NB   1       0.3250   0.4820
  sN2   NC   1       0.3250   0.4820
  sN2   N2   1       0.3250   0.4820
  sN2   N3   1       0.3250   0.4820
  sN2   N*   1       0.3250   0.4820
  sN2    O   1       0.3105   0.5357
  sN2   OB   1       0.3105   0.5357
  sN2   OW   1       0.3200   0.4559
  sN2   OH   1       0.3158   0.5363
  sN2   O3   1       0.3158   0.5363
  sN2   OS   1       0.3125   0.4820
  sN2   O2   1       0.3105   0.5357
  sN2    P   1       0.3496   0.5228
  sN2    S   1       0.3407   0.5845
  sN2   SH   1       0.3407   0.5845
  sN2   CU   1       0.3325   0.3428
  sN2   FE   1       0.1625   0.0000
  sN2    K   1       0.3993   0.0212
  sN2   Rb   1       0.4258   0.0152
  sN2   Li   1       0.2638   0.1582
  sN2   Zn   1       0.2605   0.1307
  sN2 HW_tip4pew   1       0.1625   0.0000
  sN2 OW_tip4pew   1       0.3207   0.4716
  sN2 HW_tip4p   1       0.1625   0.0000
  sN2 OW_tip4p   1       0.3202   0.4603
  sN2 HW_tip5p   1       0.1625   0.0000
  sN2 OW_tip5p   1       0.3185   0.4676
  sN2 HW_tip4pd   1       0.1625   0.0000
  sN2 OW_tip4pd   1       0.3207   0.5713
  sN2   MW   1       0.1625   0.0000
  sN2 MCH3   1       0.1625   0.0000
  sN2 MNH3   1       0.1625   0.0000
  sN2   c3   1       0.3325   0.3867
  sN2   hc   1       0.2950   0.1465
  sN2    c   1       0.3325   0.3428
  sN2    o   1       0.3105   0.5357
  sN2    n   1       0.3250   0.4820
  sN2   h1   1       0.2861   0.1465
  sN2   ca   1       0.3325   0.3428
  sN2   ha   1       0.2925   0.1432
  sN2   n3   1       0.3250   0.4820
  sN2   hx   1       0.2605   0.1465
  sN2   n4   1       0.3250   0.4820
  sN2   hn   1       0.2160   0.1465
  sN3   Br   1       0.1625   0.0000
  sN3    C   1       0.3325   0.3428
  sN3   C6   1       0.3325   0.3428
  sN3   C5   1       0.3325   0.3428
  sN3   CA   1       0.3325   0.3428
  sN3   CB   1       0.3325   0.3428
  sN3   CC   1       0.3325   0.3428
  sN3   CK   1       0.3325   0.3428
  sN3   CM   1       0.3325   0.3428
  sN3   CN   1       0.3325   0.3428
  sN3   CQ   1       0.3325   0.3428
  sN3   CR   1       0.3325   0.3428
  sN3   CT   1       0.3325   0.3867
  sN3   C1   1       0.3325   0.3867
  sN3   C3   1       0.3325   0.3867
  sN3   C4   1       0.3325   0.3867
  sN3   C7   1       0.3325   0.3867
  sN3   C8   1       0.3325   0.3867
  sN3   C9   1       0.3325   0.3867
  sN3   CV   1       0.3325   0.3428
  sN3   CW   1       0.3325   0.3428
  sN3   C*   1       0.3325   0.3428
  sN3   C0   1       0.3151   0.7927
  sN3    F   1       0.3184   0.2887
  sN3    H   1       0.2160   0.1465
  sN3   HB   1       0.2160   0.1465
  sN3   HC   1       0.2950   0.1465
  sN3   H1   1       0.2861   0.1465
  sN3   H2   1       0.2772   0.1465
  sN3   H3   1       0.2682   0.1465
  sN3   HA   1       0.2925   0.1432
  sN3   H4   1       0.2880   0.1432
  sN3   H5   1       0.2836   0.1432
  sN3   HO   1       0.1625   0.0000
  sN3   HS   1       0.2160   0.1465
  sN3   HW   1       0.1625   0.0000
  sN3   HP   1       0.2605   0.1465
  sN3    I   1       0.3719   0.7394
  sN3   Cl   1       0.3826   0.3697
  sN3   Na   1       0.3289   0.0615
  sN3   IB   1       0.6079   0.3697
  sN3   MG   1       0.2331   1.1058
  sN3    N   1       0.3250   0.4820
  sN3   NA   1       0.3250   0.4820
  sN3   NB   1       0.3250   0.4820
  sN3   NC   1       0.3250   0.4820
  sN3   N2   1       0.3250   0.4820
  sN3   N3   1       0.3250   0.4820
  sN3   N*   1       0.3250   0.4820
  sN3    O   1       0.3105   0.5357
  sN3   OB   1       0.3105   0.5357
  sN3   OW   1       0.3200   0.4559
  sN3   OH   1       0.3158   0.5363
  sN3   O3   1       0.3158   0.5363
  sN3   OS   1       0.3125   0.4820
  sN3   O2   1       0.3105   0.5357
  sN3    P   1       0.3496   0.5228
  sN3    S   1       0.3407   0.5845
  sN3   SH   1       0.3407   0.5845
  sN3   CU   1       0.3325   0.3428
  sN3   FE   1       0.1625   0.0000
  sN3    K   1       0.3993   0.0212
  sN3   Rb   1       0.4258   0.0152
  sN3   Li   1       0.2638   0.1582
  sN3   Zn   1       0.2605   0.1307
  sN3 HW_tip4pew   1       0.1625   0.0000
  sN3 OW_tip4pew   1       0.3207   0.4716
  sN3 HW_tip4p   1       0.1625   0.0000
  sN3 OW_tip4p   1       0.3202   0.4603
  sN3 HW_tip5p   1       0.1625   0.0000
  sN3 OW_tip5p   1       0.3185   0.4676
  sN3 HW_tip4pd   1       0.1625   0.0000
  sN3 OW_tip4pd   1       0.3207   0.5713
  sN3   MW   1       0.1625   0.0000
  sN3 MCH3   1       0.1625   0.0000
  sN3 MNH3   1       0.1625   0.0000
  sN3   c3   1       0.3325   0.3867
  sN3   hc   1       0.2950   0.1465
  sN3    c   1       0.3325   0.3428
  sN3    o   1       0.3105   0.5357
  sN3    n   1       0.3250   0.4820
  sN3   h1   1       0.2861   0.1465
  sN3   ca   1       0.3325   0.3428
  sN3   ha   1       0.2925   0.1432
  sN3   n3   1       0.3250   0.4820
  sN3   hx   1       0.2605   0.1465
  sN3   n4   1       0.3250   0.4820
  sN3   hn   1       0.2160   0.1465
  sN*   Br   1       0.1625   0.0000
  sN*    C   1       0.3325   0.3428
  sN*   C6   1       0.3325   0.3428
  sN*   C5   1       0.3325   0.3428
  sN*   CA   1       0.3325   0.3428
  sN*   CB   1       0.3325   0.3428
  sN*   CC   1       0.3325   0.3428
  sN*   CK   1       0.3325   0.3428
  sN*   CM   1       0.3325   0.3428
  sN*   CN   1       0.3325   0.3428
  sN*   CQ   1       0.3325   0.3428
  sN*   CR   1       0.3325   0.3428
  sN*   CT   1       0.3325   0.3867
  sN*   C1   1       0.3325   0.3867
  sN*   C3   1       0.3325   0.3867
  sN*   C4   1       0.3325   0.3867
  sN*   C7   1       0.3325   0.3867
  sN*   C8   1       0.3325   0.3867
  sN*   C9   1       0.3325   0.3867
  sN*   CV   1       0.3325   0.3428
  sN*   CW   1       0.3325   0.3428
  sN*   C*   1       0.3325   0.3428
  sN*   C0   1       0.3151   0.7927
  sN*    F   1       0.3184   0.2887
  sN*    H   1       0.2160   0.1465
  sN*   HB   1       0.2160   0.1465
  sN*   HC   1       0.2950   0.1465
  sN*   H1   1       0.2861   0.1465
  sN*   H2   1       0.2772   0.1465
  sN*   H3   1       0.2682   0.1465
  sN*   HA   1       0.2925   0.1432
  sN*   H4   1       0.2880   0.1432
  sN*   H5   1       0.2836   0.1432
  sN*   HO   1       0.1625   0.0000
  sN*   HS   1       0.2160   0.1465
  sN*   HW   1       0.1625   0.0000
  sN*   HP   1       0.2605   0.1465
  sN*    I   1       0.3719   0.7394
  sN*   Cl   1       0.3826   0.3697
  sN*   Na   1       0.3289   0.0615
  sN*   IB   1       0.6079   0.3697
  sN*   MG   1       0.2331   1.1058
  sN*    N   1       0.3250   0.4820
  sN*   NA   1       0.3250   0.4820
  sN*   NB   1       0.3250   0.4820
  sN*   NC   1       0.3250   0.4820
  sN*   N2   1       0.3250   0.4820
  sN*   N3   1       0.3250   0.4820
  sN*   N*   1       0.3250   0.4820
  sN*    O   1       0.3105   0.5357
  sN*   OB   1       0.3105   0.5357
  sN*   OW   1       0.3200   0.4559
  sN*   OH   1       0.3158   0.5363
  sN*   O3   1       0.3158   0.5363
  sN*   OS   1       0.3125   0.4820
  sN*   O2   1       0.3105   0.5357
  sN*    P   1       0.3496   0.5228
  sN*    S   1       0.3407   0.5845
  sN*   SH   1       0.3407   0.5845
  sN*   CU   1       0.3325   0.3428
  sN*   FE   1       0.1625   0.0000
  sN*    K   1       0.3993   0.0212
  sN*   Rb   1       0.4258   0.0152
  sN*   Li   1       0.2638   0.1582
  sN*   Zn   1       0.2605   0.1307
  sN* HW_tip4pew   1       0.1625   0.0000
  sN* OW_tip4pew   1       0.3207   0.4716
  sN* HW_tip4p   1       0.1625   0.0000
  sN* OW_tip4p   1       0.3202   0.4603
  sN* HW_tip5p   1       0.1625   0.0000
  sN* OW_tip5p   1       0.3185   0.4676
  sN* HW_tip4pd   1       0.1625   0.0000
  sN* OW_tip4pd   1       0.3207   0.5713
  sN*   MW   1       0.1625   0.0000
  sN* MCH3   1       0.1625   0.0000
  sN* MNH3   1       0.1625   0.0000
  sN*   c3   1       0.3325   0.3867
  sN*   hc   1       0.2950   0.1465
  sN*    c   1       0.3325   0.3428
  sN*    o   1       0.3105   0.5357
  sN*    n   1       0.3250   0.4820
  sN*   h1   1       0.2861   0.1465
  sN*   ca   1       0.3325   0.3428
  sN*   ha   1       0.2925   0.1432
  sN*   n3   1       0.3250   0.4820
  sN*   hx   1       0.2605   0.1465
  sN*   n4   1       0.3250   0.4820
  sN*   hn   1       0.2160   0.1465
   sO   Br   1       0.1480   0.0000
   sO    C   1       0.3180   0.3811
   sO   C6   1       0.3180   0.3811
   sO   C5   1       0.3180   0.3811
   sO   CA   1       0.3180   0.3811
   sO   CB   1       0.3180   0.3811
   sO   CC   1       0.3180   0.3811
   sO   CK   1       0.3180   0.3811
   sO   CM   1       0.3180   0.3811
   sO   CN   1       0.3180   0.3811
   sO   CQ   1       0.3180   0.3811
   sO   CR   1       0.3180   0.3811
   sO   CT   1       0.3180   0.4298
   sO   C1   1       0.3180   0.4298
   sO   C3   1       0.3180   0.4298
   sO   C4   1       0.3180   0.4298
   sO   C7   1       0.3180   0.4298
   sO   C8   1       0.3180   0.4298
   sO   C9   1       0.3180   0.4298
   sO   CV   1       0.3180   0.3811
   sO   CW   1       0.3180   0.3811
   sO   C*   1       0.3180   0.3811
   sO   C0   1       0.3006   0.8811
   sO    F   1       0.3039   0.3209
   sO    H   1       0.2014   0.1628
   sO   HB   1       0.2014   0.1628
   sO   HC   1       0.2805   0.1628
   sO   H1   1       0.2716   0.1628
   sO   H2   1       0.2627   0.1628
   sO   H3   1       0.2537   0.1628
   sO   HA   1       0.2780   0.1591
   sO   H4   1       0.2735   0.1591
   sO   H5   1       0.2691   0.1591
   sO   HO   1       0.1480   0.0000
   sO   HS   1       0.2014   0.1628
   sO   HW   1       0.1480   0.0000
   sO   HP   1       0.2460   0.1628
   sO    I   1       0.3574   0.8218
   sO   Cl   1       0.3680   0.4109
   sO   Na   1       0.3144   0.0684
   sO   IB   1       0.5934   0.4109
   sO   MG   1       0.2186   1.2291
   sO    N   1       0.3105   0.5357
   sO   NA   1       0.3105   0.5357
   sO   NB   1       0.3105   0.5357
   sO   NC   1       0.3105   0.5357
   sO   N2   1       0.3105   0.5357
   sO   N3   1       0.3105   0.5357
   sO   N*   1       0.3105   0.5357
   sO    O   1       0.2960   0.5954
   sO   OB   1       0.2960   0.5954
   sO   OW   1       0.3055   0.5068
   sO   OH   1       0.3013   0.5960
   sO   O3   1       0.3013   0.5960
   sO   OS   1       0.2980   0.5357
   sO   O2   1       0.2960   0.5954
   sO    P   1       0.3351   0.5811
   sO    S   1       0.3262   0.6497
   sO   SH   1       0.3262   0.6497
   sO   CU   1       0.3180   0.3811
   sO   FE   1       0.1480   0.0000
   sO    K   1       0.3848   0.0235
   sO   Rb   1       0.4113   0.0169
   sO   Li   1       0.2493   0.1758
   sO   Zn   1       0.2460   0.1453
   sO HW_tip4pew   1       0.1480   0.0000
   sO OW_tip4pew   1       0.3062   0.5242
   sO HW_tip4p   1       0.1480   0.0000
   sO OW_tip4p   1       0.3057   0.5116
   sO HW_tip5p   1       0.1480   0.0000
   sO OW_tip5p   1       0.3040   0.5198
   sO HW_tip4pd   1       0.1480   0.0000
   sO OW_tip4pd   1       0.3062   0.6349
   sO   MW   1       0.1480   0.0000
   sO MCH3   1       0.1480   0.0000
   sO MNH3   1       0.1480   0.0000
   sO   c3   1       0.3180   0.4298
   sO   hc   1       0.2805   0.1628
   sO    c   1       0.3180   0.3811
   sO    o   1       0.2960   0.5954
   sO    n   1       0.3105   0.5357
   sO   h1   1       0.2716   0.1628
   sO   ca   1       0.3180   0.3811
   sO   ha   1       0.2780   0.1591
   sO   n3   1       0.3105   0.5357
   sO   hx   1       0.2460   0.1628
   sO   n4   1       0.3105   0.5357
   sO   hn   1       0.2014   0.1628
  sOB   Br   1       0.1480   0.0000
  sOB    C   1       0.3180   0.3811
  sOB   C6   1       0.3180   0.3811
  sOB   C5   1       0.3180   0.3811
  sOB   CA   1       0.3180   0.3811
  sOB   CB   1       0.3180   0.3811
  sOB   CC   1       0.3180   0.3811
  sOB   CK   1       0.3180   0.3811
  sOB   CM   1       0.3180   0.3811
  sOB   CN   1       0.3180   0.3811
  sOB   CQ   1       0.3180   0.3811
  sOB   CR   1       0.3180   0.3811
  sOB   CT   1       0.3180   0.4298
  sOB   C1   1       0.3180   0.4298
  sOB   C3   1       0.3180   0.4298
  sOB   C4   1       0.3180   0.4298
  sOB   C7   1       0.3180   0.4298
  sOB   C8   1       0.3180   0.4298
  sOB   C9   1       0.3180   0.4298
  sOB   CV   1       0.3180   0.3811
  sOB   CW   1       0.3180   0.3811
  sOB   C*   1       0.3180   0.3811
  sOB   C0   1       0.3006   0.8811
  sOB    F   1       0.3039   0.3209
  sOB    H   1       0.2014   0.1628
  sOB   HB   1       0.2014   0.1628
  sOB   HC   1       0.2805   0.1628
  sOB   H1   1       0.2716   0.1628
  sOB   H2   1       0.2627   0.1628
  sOB   H3   1       0.2537   0.1628
  sOB   HA   1       0.2780   0.1591
  sOB   H4   1       0.2735   0.1591
  sOB   H5   1       0.2691   0.1591
  sOB   HO   1       0.1480   0.0000
  sOB   HS   1       0.2014   0.1628
  sOB   HW   1       0.1480   0.0000
  sOB   HP   1       0.2460   0.1628
  sOB    I   1       0.3574   0.8218
  sOB   Cl   1       0.3680   0.4109
  sOB   Na   1       0.3144   0.0684
  sOB   IB   1       0.5934   0.4109
  sOB   MG   1       0.2186   1.2291
  sOB    N   1       0.3105   0.5357
  sOB   NA   1       0.3105   0.5357
  sOB   NB   1       0.3105   0.5357
  sOB   NC   1       0.3105   0.5357
  sOB   N2   1       0.3105   0.5357
  sOB   N3   1       0.3105   0.5357
  sOB   N*   1       0.3105   0.5357
  sOB    O   1       0.2960   0.5954
  sOB   OB   1       0.2960   0.5954
  sOB   OW   1       0.3055   0.5068
  sOB   OH   1       0.3013   0.5960
  sOB   O3   1       0.3013   0.5960
  sOB   OS   1       0.2980   0.5357
  sOB   O2   1       0.2960   0.5954
  sOB    P   1       0.3351   0.5811
  sOB    S   1       0.3262   0.6497
  sOB   SH   1       0.3262   0.6497
  sOB   CU   1       0.3180   0.3811
  sOB   FE   1       0.1480   0.0000
  sOB    K   1       0.3848   0.0235
  sOB   Rb   1       0.4113   0.0169
  sOB   Li   1       0.2493   0.1758
  sOB   Zn   1       0.2460   0.1453
  sOB HW_tip4pew   1       0.1480   0.0000
  sOB OW_tip4pew   1       0.3062   0.5242
  sOB HW_tip4p   1       0.1480   0.0000
  sOB OW_tip4p   1       0.3057   0.5116
  sOB HW_tip5p   1       0.1480   0.0000
  sOB OW_tip5p   1       0.3040   0.5198
  sOB HW_tip4pd   1       0.1480   0.0000
  sOB OW_tip4pd   1       0.3062   0.6349
  sOB   MW   1       0.1480   0.0000
  sOB MCH3   1       0.1480   0.0000
  sOB MNH3   1       0.1480   0.0000
  sOB   c3   1       0.3180   0.4298
  sOB   hc   1       0.2805   0.1628
  sOB    c   1       0.3180   0.3811
  sOB    o   1       0.2960   0.5954
  sOB    n   1       0.3105   0.5357
  sOB   h1   1       0.2716   0.1628
  sOB   ca   1       0.3180   0.3811
  sOB   ha   1       0.2780   0.1591
  sOB   n3   1       0.3105   0.5357
  sOB   hx   1       0.2460   0.1628
  sOB   n4   1       0.3105   0.5357
  sOB   hn   1       0.2014   0.1628
  sOW   Br   1       0.1575   0.0000
  sOW    C   1       0.3275   0.3243
  sOW   C6   1       0.3275   0.3243
  sOW   C5   1       0.3275   0.3243
  sOW   CA   1       0.3275   0.3243
  sOW   CB   1       0.3275   0.3243
  sOW   CC   1       0.3275   0.3243
  sOW   CK   1       0.3275   0.3243
  sOW   CM   1       0.3275   0.3243
  sOW   CN   1       0.3275   0.3243
  sOW   CQ   1       0.3275   0.3243
  sOW   CR   1       0.3275   0.3243
  sOW   CT   1       0.3275   0.3658
  sOW   C1   1       0.3275   0.3658
  sOW   C3   1       0.3275   0.3658
  sOW   C4   1       0.3275   0.3658
  sOW   C7   1       0.3275   0.3658
  sOW   C8   1       0.3275   0.3658
  sOW   C9   1       0.3275   0.3658
  sOW   CV   1       0.3275   0.3243
  sOW   CW   1       0.3275   0.3243
  sOW   C*   1       0.3275   0.3243
  sOW   C0   1       0.3102   0.7498
  sOW    F   1       0.3134   0.2731
  sOW    H   1       0.2110   0.1386
  sOW   HB   1       0.2110   0.1386
  sOW   HC   1       0.2900   0.1386
  sOW   H1   1       0.2811   0.1386
  sOW   H2   1       0.2722   0.1386
  sOW   H3   1       0.2633   0.1386
  sOW   HA   1       0.2875   0.1354
  sOW   H4   1       0.2831   0.1354
  sOW   H5   1       0.2786   0.1354
  sOW   HO   1       0.1575   0.0000
  sOW   HS   1       0.2110   0.1386
  sOW   HW   1       0.1575   0.0000
  sOW   HP   1       0.2555   0.1386
  sOW    I   1       0.3669   0.6994
  sOW   Cl   1       0.3776   0.3497
  sOW   Na   1       0.3240   0.0582
  sOW   IB   1       0.6030   0.3497
  sOW   MG   1       0.2281   1.0460
  sOW    N   1       0.3200   0.4559
  sOW   NA   1       0.3200   0.4559
  sOW   NB   1       0.3200   0.4559
  sOW   NC   1       0.3200   0.4559
  sOW   N2   1       0.3200   0.4559
  sOW   N3   1       0.3200   0.4559
  sOW   N*   1       0.3200   0.4559
  sOW    O   1       0.3055   0.5068
  sOW   OB   1       0.3055   0.5068
  sOW   OW   1       0.3151   0.4313
  sOW   OH   1       0.3109   0.5072
  sOW   O3   1       0.3109   0.5072
  sOW   OS   1       0.3075   0.4559
  sOW   O2   1       0.3055   0.5068
  sOW    P   1       0.3446   0.4945
  sOW    S   1       0.3357   0.5529
  sOW   SH   1       0.3357   0.5529
  sOW   CU   1       0.3275   0.3243
  sOW   FE   1       0.1575   0.0000
  sOW    K   1       0.3943   0.0200
  sOW   Rb   1       0.4209   0.0144
  sOW   Li   1       0.2588   0.1496
  sOW   Zn   1       0.2555   0.1236
  sOW HW_tip4pew   1       0.1575   0.0000
  sOW OW_tip4pew   1       0.3157   0.4461
  sOW HW_tip4p   1       0.1575   0.0000
  sOW OW_tip4p   1       0.3152   0.4354
  sOW HW_tip5p   1       0.1575   0.0000
  sOW OW_tip5p   1       0.3135   0.4423
  sOW HW_tip4pd   1       0.1575   0.0000
  sOW OW_tip4pd   1       0.3158   0.5403
  sOW   MW   1       0.1575   0.0000
  sOW MCH3   1       0.1575   0.0000
  sOW MNH3   1       0.1575   0.0000
  sOW   c3   1       0.3275   0.3658
  sOW   hc   1       0.2900   0.1386
  sOW    c   1       0.3275   0.3243
  sOW    o   1       0.3055   0.5068
  sOW    n   1       0.3200   0.4559
  sOW   h1   1       0.2811   0.1386
  sOW   ca   1       0.3275   0.3243
  sOW   ha   1       0.2875   0.1354
  sOW   n3   1       0.3200   0.4559
  sOW   hx   1       0.2555   0.1386
  sOW   n4   1       0.3200   0.4559
  sOW   hn   1       0.2110   0.1386
  sOH   Br   1       0.1533   0.0000
  sOH    C   1       0.3233   0.3814
  sOH   C6   1       0.3233   0.3814
  sOH   C5   1       0.3233   0.3814
  sOH   CA   1       0.3233   0.3814
  sOH   CB   1       0.3233   0.3814
  sOH   CC   1       0.3233   0.3814
  sOH   CK   1       0.3233   0.3814
  sOH   CM   1       0.3233   0.3814
  sOH   CN   1       0.3233   0.3814
  sOH   CQ   1       0.3233   0.3814
  sOH   CR   1       0.3233   0.3814
  sOH   CT   1       0.3233   0.4302
  sOH   C1   1       0.3233   0.4302
  sOH   C3   1       0.3233   0.4302
  sOH   C4   1       0.3233   0.4302
  sOH   C7   1       0.3233   0.4302
  sOH   C8   1       0.3233   0.4302
  sOH   C9   1       0.3233   0.4302
  sOH   CV   1       0.3233   0.3814
  sOH   CW   1       0.3233   0.3814
  sOH   C*   1       0.3233   0.3814
  sOH   C0   1       0.3059   0.8819
  sOH    F   1       0.3092   0.3212
  sOH    H   1       0.2068   0.1630
  sOH   HB   1       0.2068   0.1630
  sOH   HC   1       0.2858   0.1630
  sOH   H1   1       0.2769   0.1630
  sOH   H2   1       0.2680   0.1630
  sOH   H3   1       0.2591   0.1630
  sOH   HA   1       0.2833   0.1593
  sOH   H4   1       0.2789   0.1593
  sOH   H5   1       0.2744   0.1593
  sOH   HO   1       0.1533   0.0000
  sOH   HS   1       0.2068   0.1630
  sOH   HW   1       0.1533   0.0000
  sOH   HP   1       0.2513   0.1630
  sOH    I   1       0.3627   0.8226
  sOH   Cl   1       0.3734   0.4113
  sOH   Na   1       0.3197   0.0685
  sOH   IB   1       0.5988   0.4113
  sOH   MG   1       0.2239   1.2302
  sOH    N   1       0.3158   0.5363
  sOH   NA   1       0.3158   0.5363
  sOH   NB   1       0.3158   0.5363
  sOH   NC   1       0.3158   0.5363
  sOH   N2   1       0.3158   0.5363
  sOH   N3   1       0.3158   0.5363
  sOH   N*   1       0.3158   0.5363
  sOH    O   1       0.3013   0.5960
  sOH   OB   1       0.3013   0.5960
  sOH   OW   1       0.3109   0.5072
  sOH   OH   1       0.3066   0.5966
  sOH   O3   1       0.3066   0.5966
  sOH   OS   1       0.3033   0.5363
  sOH   O2   1       0.3013   0.5960
  sOH    P   1       0.3404   0.5817
  sOH    S   1       0.3315   0.6503
  sOH   SH   1       0.3315   0.6503
  sOH   CU   1       0.3233   0.3814
  sOH   FE   1       0.1533   0.0000
  sOH    K   1       0.3901   0.0236
  sOH   Rb   1       0.4167   0.0170
  sOH   Li   1       0.2546   0.1759
  sOH   Zn   1       0.2513   0.1454
  sOH HW_tip4pew   1       0.1533   0.0000
  sOH OW_tip4pew   1       0.3115   0.5247
  sOH HW_tip4p   1       0.1533   0.0000
  sOH OW_tip4p   1       0.3110   0.5121
  sOH HW_tip5p   1       0.1533   0.0000
  sOH OW_tip5p   1       0.3093   0.5202
  sOH HW_tip4pd   1       0.1533   0.0000
  sOH OW_tip4pd   1       0.3116   0.6355
  sOH   MW   1       0.1533   0.0000
  sOH MCH3   1       0.1533   0.0000
  sOH MNH3   1       0.1533   0.0000
  sOH   c3   1       0.3233   0.4302
  sOH   hc   1       0.2858   0.1630
  sOH    c   1       0.3233   0.3814
  sOH    o   1       0.3013   0.5960
  sOH    n   1       0.3158   0.5363
  sOH   h1   1       0.2769   0.1630
  sOH   ca   1       0.3233   0.3814
  sOH   ha   1       0.2833   0.1593
  sOH   n3   1       0.3158   0.5363
  sOH   hx   1       0.2513   0.1630
  sOH   n4   1       0.3158   0.5363
  sOH   hn   1       0.2068   0.1630
  sO3   Br   1       0.1533   0.0000
  sO3    C   1       0.3233   0.3814
  sO3   C6   1       0.3233   0.3814
  sO3   C5   1       0.3233   0.3814
  sO3   CA   1       0.3233   0.3814
  sO3   CB   1       0.3233   0.3814
  sO3   CC   1       0.3233   0.3814
  sO3   CK   1       0.3233   0.3814
  sO3   CM   1       0.3233   0.3814
  sO3   CN   1       0.3233   0.3814
  sO3   CQ   1       0.3233   0.3814
  sO3   CR   1       0.3233   0.3814
  sO3   CT   1       0.3233   0.4302
  sO3   C1   1       0.3233   0.4302
  sO3   C3   1       0.3233   0.4302
  sO3   C4   1       0.3233   0.4302
  sO3   C7   1       0.3233   0.4302
  sO3   C8   1       0.3233   0.4302
  sO3   C9   1       0.3233   0.4302
  sO3   CV   1       0.3233   0.3814
  sO3   CW   1       0.3233   0.3814
  sO3   C*   1       0.3233   0.3814
  sO3   C0   1       0.3059   0.8819
  sO3    F   1       0.3092   0.3212
  sO3    H   1       0.2068   0.1630
  sO3   HB   1       0.2068   0.1630
  sO3   HC   1       0.2858   0.1630
  sO3   H1   1       0.2769   0.1630
  sO3   H2   1       0.2680   0.1630
  sO3   H3   1       0.2591   0.1630
  sO3   HA   1       0.2833   0.1593
  sO3   H4   1       0.2789   0.1593
  sO3   H5   1       0.2744   0.1593
  sO3   HO   1       0.1533   0.0000
  sO3   HS   1       0.2068   0.1630
  sO3   HW   1       0.1533   0.0000
  sO3   HP   1       0.2513   0.1630
  sO3    I   1       0.3627   0.8226
  sO3   Cl   1       0.3734   0.4113
  sO3   Na   1       0.3197   0.0685
  sO3   IB   1       0.5988   0.4113
  sO3   MG   1       0.2239   1.2302
  sO3    N   1       0.3158   0.5363
  sO3   NA   1       0.3158   0.5363
  sO3   NB   1       0.3158   0.5363
  sO3   NC   1       0.3158   0.5363
  sO3   N2   1       0.3158   0.5363
  sO3   N3   1       0.3158   0.5363
  sO3   N*   1       0.3158   0.5363
  sO3    O   1       0.3013   0.5960
  sO3   OB   1       0.3013   0.5960
  sO3   OW   1       0.3109   0.5072
  sO3   OH   1       0.3066   0.5966
  sO3   O3   1       0.3066   0.5966
  sO3   OS   1       0.3033   0.5363
  sO3   O2   1       0.3013   0.5960
  sO3    P   1       0.3404   0.5817
  sO3    S   1       0.3315   0.6503
  sO3   SH   1       0.3315   0.6503
  sO3   CU   1       0.3233   0.3814
  sO3   FE   1       0.1533   0.0000
  sO3    K   1       0.3901   0.0236
  sO3   Rb   1       0.4167   0.0170
  sO3   Li   1       0.2546   0.1759
  sO3   Zn   1       0.2513   0.1454
  sO3 HW_tip4pew   1       0.1533   0.0000
  sO3 OW_tip4pew   1       0.3115   0.5247
  sO3 HW_tip4p   1       0.1533   0.0000
  sO3 OW_tip4p   1       0.3110   0.5121
  sO3 HW_tip5p   1       0.1533   0.0000
  sO3 OW_tip5p   1       0.3093   0.5202
  sO3 HW_tip4pd   1       0.1533   0.0000
  sO3 OW_tip4pd   1       0.3116   0.6355
  sO3   MW   1       0.1533   0.0000
  sO3 MCH3   1       0.1533   0.0000
  sO3 MNH3   1       0.1533   0.0000
  sO3   c3   1       0.3233   0.4302
  sO3   hc   1       0.2858   0.1630
  sO3    c   1       0.3233   0.3814
  sO3    o   1       0.3013   0.5960
  sO3    n   1       0.3158   0.5363
  sO3   h1   1       0.2769   0.1630
  sO3   ca   1       0.3233   0.3814
  sO3   ha   1       0.2833   0.1593
  sO3   n3   1       0.3158   0.5363
  sO3   hx   1       0.2513   0.1630
  sO3   n4   1       0.3158   0.5363
  sO3   hn   1       0.2068   0.1630
  sOS   Br   1       0.1500   0.0000
  sOS    C   1       0.3200   0.3428
  sOS   C6   1       0.3200   0.3428
  sOS   C5   1       0.3200   0.3428
  sOS   CA   1       0.3200   0.3428
  sOS   CB   1       0.3200   0.3428
  sOS   CC   1       0.3200   0.3428
  sOS   CK   1       0.3200   0.3428
  sOS   CM   1       0.3200   0.3428
  sOS   CN   1       0.3200   0.3428
  sOS   CQ   1       0.3200   0.3428
  sOS   CR   1       0.3200   0.3428
  sOS   CT   1       0.3200   0.3867
  sOS   C1   1       0.3200   0.3867
  sOS   C3   1       0.3200   0.3867
  sOS   C4   1       0.3200   0.3867
  sOS   C7   1       0.3200   0.3867
  sOS   C8   1       0.3200   0.3867
  sOS   C9   1       0.3200   0.3867
  sOS   CV   1       0.3200   0.3428
  sOS   CW   1       0.3200   0.3428
  sOS   C*   1       0.3200   0.3428
  sOS   C0   1       0.3026   0.7927
  sOS    F   1       0.3059   0.2887
  sOS    H   1       0.2035   0.1465
  sOS   HB   1       0.2035   0.1465
  sOS   HC   1       0.2825   0.1465
  sOS   H1   1       0.2736   0.1465
  sOS   H2   1       0.2647   0.1465
  sOS   H3   1       0.2558   0.1465
  sOS   HA   1       0.2800   0.1432
  sOS   H4   1       0.2755   0.1432
  sOS   H5   1       0.2711   0.1432
  sOS   HO   1       0.1500   0.0000
  sOS   HS   1       0.2035   0.1465
  sOS   HW   1       0.1500   0.0000
  sOS   HP   1       0.2480   0.1465
  sOS    I   1       0.3594   0.7394
  sOS   Cl   1       0.3701   0.3697
  sOS   Na   1       0.3164   0.0615
  sOS   IB   1       0.5954   0.3697
  sOS   MG   1       0.2206   1.1058
  sOS    N   1       0.3125   0.4820
  sOS   NA   1       0.3125   0.4820
  sOS   NB   1       0.3125   0.4820
  sOS   NC   1       0.3125   0.4820
  sOS   N2   1       0.3125   0.4820
  sOS   N3   1       0.3125   0.4820
  sOS   N*   1       0.3125   0.4820
  sOS    O   1       0.2980   0.5357
  sOS   OB   1       0.2980   0.5357
  sOS   OW   1       0.3075   0.4559
  sOS   OH   1       0.3033   0.5363
  sOS   O3   1       0.3033   0.5363
  sOS   OS   1       0.3000   0.4820
  sOS   O2   1       0.2980   0.5357
  sOS    P   1       0.3371   0.5228
  sOS    S   1       0.3282   0.5845
  sOS   SH   1       0.3282   0.5845
  sOS   CU   1       0.3200   0.3428
  sOS   FE   1       0.1500   0.0000
  sOS    K   1       0.3868   0.0212
  sOS   Rb   1       0.4133   0.0152
  sOS   Li   1       0.2513   0.1582
  sOS   Zn   1       0.2480   0.1307
  sOS HW_tip4pew   1       0.1500   0.0000
  sOS OW_tip4pew   1       0.3082   0.4716
  sOS HW_tip4p   1       0.1500   0.0000
  sOS OW_tip4p   1       0.3077   0.4603
  sOS HW_tip5p   1       0.1500   0.0000
  sOS OW_tip5p   1       0.3060   0.4676
  sOS HW_tip4pd   1       0.1500   0.0000
  sOS OW_tip4pd   1       0.3083   0.5713
  sOS   MW   1       0.1500   0.0000
  sOS MCH3   1       0.1500   0.0000
  sOS MNH3   1       0.1500   0.0000
  sOS   c3   1       0.3200   0.3867
  sOS   hc   1       0.2825   0.1465
  sOS    c   1       0.3200   0.3428
  sOS    o   1       0.2980   0.5357
  sOS    n   1       0.3125   0.4820
  sOS   h1   1       0.2736   0.1465
  sOS   ca   1       0.3200   0.3428
  sOS   ha   1       0.2800   0.1432
  sOS   n3   1       0.3125   0.4820
  sOS   hx   1       0.2480   0.1465
  sOS   n4   1       0.3125   0.4820
  sOS   hn   1       0.2035   0.1465
  sO2   Br   1       0.1480   0.0000
  sO2    C   1       0.3180   0.3811
  sO2   C6   1       0.3180   0.3811
  sO2   C5   1       0.3180   0.3811
  sO2   CA   1       0.3180   0.3811
  sO2   CB   1       0.3180   0.3811
  sO2   CC   1       0.3180   0.3811
  sO2   CK   1       0.3180   0.3811
  sO2   CM   1       0.3180   0.3811
  sO2   CN   1       0.3180   0.3811
  sO2   CQ   1       0.3180   0.3811
  sO2   CR   1       0.3180   0.3811
  sO2   CT   1       0.3180   0.4298
  sO2   C1   1       0.3180   0.4298
  sO2   C3   1       0.3180   0.4298
  sO2   C4   1       0.3180   0.4298
  sO2   C7   1       0.3180   0.4298
  sO2   C8   1       0.3180   0.4298
  sO2   C9   1       0.3180   0.4298
  sO2   CV   1       0.3180   0.3811
  sO2   CW   1       0.3180   0.3811
  sO2   C*   1       0.3180   0.3811
  sO2   C0   1       0.3006   0.8811
  sO2    F   1       0.3039   0.3209
  sO2    H   1       0.2014   0.1628
  sO2   HB   1       0.2014   0.1628
  sO2   HC   1       0.2805   0.1628
  sO2   H1   1       0.2716   0.1628
  sO2   H2   1       0.2627   0.1628
  sO2   H3   1       0.2537   0.1628
  sO2   HA   1       0.2780   0.1591
  sO2   H4   1       0.2735   0.1591
  sO2   H5   1       0.2691   0.1591
  sO2   HO   1       0.1480   0.0000
  sO2   HS   1       0.2014   0.1628
  sO2   HW   1       0.1480   0.0000
  sO2   HP   1       0.2460   0.1628
  sO2    I   1       0.3574   0.8218
  sO2   Cl   1       0.3680   0.4109
  sO2   Na   1       0.3144   0.0684
  sO2   IB   1       0.5934   0.4109
  sO2   MG   1       0.2186   1.2291
  sO2    N   1       0.3105   0.5357
  sO2   NA   1       0.3105   0.5357
  sO2   NB   1       0.3105   0.5357
  sO2   NC   1       0.3105   0.5357
  sO2   N2   1       0.3105   0.5357
  sO2   N3   1       0.3105   0.5357
  sO2   N*   1       0.3105   0.5357
  sO2    O   1       0.2960   0.5954
  sO2   OB   1       0.2960   0.5954
  sO2   OW   1       0.3055   0.5068
  sO2   OH   1       0.3013   0.5960
  sO2   O3   1       0.3013   0.5960
  sO2   OS   1       0.2980   0.5357
  sO2   O2   1       0.2960   0.5954
  sO2    P   1       0.3351   0.5811
  sO2    S   1       0.3262   0.6497
  sO2   SH   1       0.3262   0.6497
  sO2   CU   1       0.3180   0.3811
  sO2   FE   1       0.1480   0.0000
  sO2    K   1       0.3848   0.0235
  sO2   Rb   1       0.4113   0.0169
  sO2   Li   1       0.2493   0.1758
  sO2   Zn   1       0.2460   0.1453
  sO2 HW_tip4pew   1       0.1480   0.0000
  sO2 OW_tip4pew   1       0.3062   0.5242
  sO2 HW_tip4p   1       0.1480   0.0000
  sO2 OW_tip4p   1       0.3057   0.5116
  sO2 HW_tip5p   1       0.1480   0.0000
  sO2 OW_tip5p   1       0.3040   0.5198
  sO2 HW_tip4pd   1       0.1480   0.0000
  sO2 OW_tip4pd   1       0.3062   0.6349
  sO2   MW   1       0.1480   0.0000
  sO2 MCH3   1       0.1480   0.0000
  sO2 MNH3   1       0.1480   0.0000
  sO2   c3   1       0.3180   0.4298
  sO2   hc   1       0.2805   0.1628
  sO2    c   1       0.3180   0.3811
  sO2    o   1       0.2960   0.5954
  sO2    n   1       0.3105   0.5357
  sO2   h1   1       0.2716   0.1628
  sO2   ca   1       0.3180   0.3811
  sO2   ha   1       0.2780   0.1591
  sO2   n3   1       0.3105   0.5357
  sO2   hx   1       0.2460   0.1628
  sO2   n4   1       0.3105   0.5357
  sO2   hn   1       0.2014   0.1628
   sP   Br   1       0.1871   0.0000
   sP    C   1       0.3571   0.3719
   sP   C6   1       0.3571   0.3719
   sP   C5   1       0.3571   0.3719
   sP   CA   1       0.3571   0.3719
   sP   CB   1       0.3571   0.3719
   sP   CC   1       0.3571   0.3719
   sP   CK   1       0.3571   0.3719
   sP   CM   1       0.3571   0.3719
   sP   CN   1       0.3571   0.3719
   sP   CQ   1       0.3571   0.3719
   sP   CR   1       0.3571   0.3719
   sP   CT   1       0.3571   0.4194
   sP   C1   1       0.3571   0.4194
   sP   C3   1       0.3571   0.4194
   sP   C4   1       0.3571   0.4194
   sP   C7   1       0.3571   0.4194
   sP   C8   1       0.3571   0.4194
   sP   C9   1       0.3571   0.4194
   sP   CV   1       0.3571   0.3719
   sP   CW   1       0.3571   0.3719
   sP   C*   1       0.3571   0.3719
   sP   C0   1       0.3397   0.8598
   sP    F   1       0.3430   0.3132
   sP    H   1       0.2405   0.1589
   sP   HB   1       0.2405   0.1589
   sP   HC   1       0.3196   0.1589
   sP   H1   1       0.3107   0.1589
   sP   H2   1       0.3017   0.1589
   sP   H3   1       0.2928   0.1589
   sP   HA   1       0.3171   0.1553
   sP   H4   1       0.3126   0.1553
   sP   H5   1       0.3082   0.1553
   sP   HO   1       0.1871   0.0000
   sP   HS   1       0.2405   0.1589
   sP   HW   1       0.1871   0.0000
   sP   HP   1       0.2851   0.1589
   sP    I   1       0.3964   0.8020
   sP   Cl   1       0.4071   0.4010
   sP   Na   1       0.3535   0.0667
   sP   IB   1       0.6325   0.4010
   sP   MG   1       0.2577   1.1994
   sP    N   1       0.3496   0.5228
   sP   NA   1       0.3496   0.5228
   sP   NB   1       0.3496   0.5228
   sP   NC   1       0.3496   0.5228
   sP   N2   1       0.3496   0.5228
   sP   N3   1       0.3496   0.5228
   sP   N*   1       0.3496   0.5228
   sP    O   1       0.3351   0.5811
   sP   OB   1       0.3351   0.5811
   sP   OW   1       0.3446   0.4945
   sP   OH   1       0.3404   0.5817
   sP   O3   1       0.3404   0.5817
   sP   OS   1       0.3371   0.5228
   sP   O2   1       0.3351   0.5811
   sP    P   1       0.3742   0.5671
   sP    S   1       0.3653   0.6340
   sP   SH   1       0.3653   0.6340
   sP   CU   1       0.3571   0.3719
   sP   FE   1       0.1871   0.0000
   sP    K   1       0.4239   0.0230
   sP   Rb   1       0.4504   0.0165
   sP   Li   1       0.2884   0.1715
   sP   Zn   1       0.2851   0.1418
   sP HW_tip4pew   1       0.1871   0.0000
   sP OW_tip4pew   1       0.3453   0.5116
   sP HW_tip4p   1       0.1871   0.0000
   sP OW_tip4p   1       0.3448   0.4992
   sP HW_tip5p   1       0.1871   0.0000
   sP OW_tip5p   1       0.3431   0.5072
   sP HW_tip4pd   1       0.1871   0.0000
   sP OW_tip4pd   1       0.3453   0.6196
   sP   MW   1       0.1871   0.0000
   sP MCH3   1       0.1871   0.0000
   sP MNH3   1       0.1871   0.0000
   sP   c3   1       0.3571   0.4194
   sP   hc   1       0.3196   0.1589
   sP    c   1       0.3571   0.3719
   sP    o   1       0.3351   0.5811
   sP    n   1       0.3496   0.5228
   sP   h1   1       0.3107   0.1589
   sP   ca   1       0.3571   0.3719
   sP   ha   1       0.3171   0.1553
   sP   n3   1       0.3496   0.5228
   sP   hx   1       0.2851   0.1589
   sP   n4   1       0.3496   0.5228
   sP   hn   1       0.2405   0.1589
   sS   Br   1       0.1782   0.0000
   sS    C   1       0.3482   0.4158
   sS   C6   1       0.3482   0.4158
   sS   C5   1       0.3482   0.4158
   sS   CA   1       0.3482   0.4158
   sS   CB   1       0.3482   0.4158
   sS   CC   1       0.3482   0.4158
   sS   CK   1       0.3482   0.4158
   sS   CM   1       0.3482   0.4158
   sS   CN   1       0.3482   0.4158
   sS   CQ   1       0.3482   0.4158
   sS   CR   1       0.3482   0.4158
   sS   CT   1       0.3482   0.4689
   sS   C1   1       0.3482   0.4689
   sS   C3   1       0.3482   0.4689
   sS   C4   1       0.3482   0.4689
   sS   C7   1       0.3482   0.4689
   sS   C8   1       0.3482   0.4689
   sS   C9   1       0.3482   0.4689
   sS   CV   1       0.3482   0.4158
   sS   CW   1       0.3482   0.4158
   sS   C*   1       0.3482   0.4158
   sS   C0   1       0.3308   0.9613
   sS    F   1       0.3341   0.3502
   sS    H   1       0.2316   0.1776
   sS   HB   1       0.2316   0.1776
   sS   HC   1       0.3107   0.1776
   sS   H1   1       0.3017   0.1776
   sS   H2   1       0.2928   0.1776
   sS   H3   1       0.2839   0.1776
   sS   HA   1       0.3082   0.1736
   sS   H4   1       0.3037   0.1736
   sS   H5   1       0.2993   0.1736
   sS   HO   1       0.1782   0.0000
   sS   HS   1       0.2316   0.1776
   sS   HW   1       0.1782   0.0000
   sS   HP   1       0.2762   0.1776
   sS    I   1       0.3875   0.8967
   sS   Cl   1       0.3982   0.4483
   sS   Na   1       0.3446   0.0746
   sS   IB   1       0.6236   0.4483
   sS   MG   1       0.2488   1.3410
   sS    N   1       0.3407   0.5845
   sS   NA   1       0.3407   0.5845
   sS   NB   1       0.3407   0.5845
   sS   NC   1       0.3407   0.5845
   sS   N2   1       0.3407   0.5845
   sS   N3   1       0.3407   0.5845
   sS   N*   1       0.3407   0.5845
   sS    O   1       0.3262   0.6497
   sS   OB   1       0.3262   0.6497
   sS   OW   1       0.3357   0.5529
   sS   OH   1       0.3315   0.6503
   sS   O3   1       0.3315   0.6503
   sS   OS   1       0.3282   0.5845
   sS   O2   1       0.3262   0.6497
   sS    P   1       0.3653   0.6340
   sS    S   1       0.3564   0.7089
   sS   SH   1       0.3564   0.7089
   sS   CU   1       0.3482   0.4158
   sS   FE   1       0.1782   0.0000
   sS    K   1       0.4150   0.0257
   sS   Rb   1       0.4415   0.0185
   sS   Li   1       0.2795   0.1918
   sS   Zn   1       0.2762   0.1585
   sS HW_tip4pew   1       0.1782   0.0000
   sS OW_tip4pew   1       0.3364   0.5719
   sS HW_tip4p   1       0.1782   0.0000
   sS OW_tip4p   1       0.3359   0.5582
   sS HW_tip5p   1       0.1782   0.0000
   sS OW_tip5p   1       0.3342   0.5671
   sS HW_tip4pd   1       0.1782   0.0000
   sS OW_tip4pd   1       0.3364   0.6928
   sS   MW   1       0.1782   0.0000
   sS MCH3   1       0.1782   0.0000
   sS MNH3   1       0.1782   0.0000
   sS   c3   1       0.3482   0.4689
   sS   hc   1       0.3107   0.1776
   sS    c   1       0.3482   0.4158
   sS    o   1       0.3262   0.6497
   sS    n   1       0.3407   0.5845
   sS   h1   1       0.3017   0.1776
   sS   ca   1       0.3482   0.4158
   sS   ha   1       0.3082   0.1736
   sS   n3   1       0.3407   0.5845
   sS   hx   1       0.2762   0.1776
   sS   n4   1       0.3407   0.5845
   sS   hn   1       0.2316   0.1776
  sSH   Br   1       0.1782   0.0000
  sSH    C   1       0.3482   0.4158
  sSH   C6   1       0.3482   0.4158
  sSH   C5   1       0.3482   0.4158
  sSH   CA   1       0.3482   0.4158
  sSH   CB   1       0.3482   0.4158
  sSH   CC   1       0.3482   0.4158
  sSH   CK   1       0.3482   0.4158
  sSH   CM   1       0.3482   0.4158
  sSH   CN   1       0.3482   0.4158
  sSH   CQ   1       0.3482   0.4158
  sSH   CR   1       0.3482   0.4158
  sSH   CT   1       0.3482   0.4689
  sSH   C1   1       0.3482   0.4689
  sSH   C3   1       0.3482   0.4689
  sSH   C4   1       0.3482   0.4689
  sSH   C7   1       0.3482   0.4689
  sSH   C8   1       0.3482   0.4689
  sSH   C9   1       0.3482   0.4689
  sSH   CV   1       0.3482   0.4158
  sSH   CW   1       0.3482   0.4158
  sSH   C*   1       0.3482   0.4158
  sSH   C0   1       0.3308   0.9613
  sSH    F   1       0.3341   0.3502
  sSH    H   1       0.2316   0.1776
  sSH   HB   1       0.2316   0.1776
  sSH   HC   1       0.3107   0.1776
  sSH   H1   1       0.3017   0.1776
  sSH   H2   1       0.2928   0.1776
  sSH   H3   1       0.2839   0.1776
  sSH   HA   1       0.3082   0.1736
  sSH   H4   1       0.3037   0.1736
  sSH   H5   1       0.2993   0.1736
  sSH   HO   1       0.1782   0.0000
  sSH   HS   1       0.2316   0.1776
  sSH   HW   1       0.1782   0.0000
  sSH   HP   1       0.2762   0.1776
  sSH    I   1       0.3875   0.8967
  sSH   Cl   1       0.3982   0.4483
  sSH   Na   1       0.3446   0.0746
  sSH   IB   1       0.6236   0.4483
  sSH   MG   1       0.2488   1.3410
  sSH    N   1       0.3407   0.5845
  sSH   NA   1       0.3407   0.5845
  sSH   NB   1       0.3407   0.5845
  sSH   NC   1       0.3407   0.5845
  sSH   N2   1       0.3407   0.5845
  sSH   N3   1       0.3407   0.5845
  sSH   N*   1       0.3407   0.5845
  sSH    O   1       0.3262   0.6497
  sSH   OB   1       0.3262   0.6497
  sSH   OW   1       0.3357   0.5529
  sSH   OH   1       0.3315   0.6503
  sSH   O3   1       0.3315   0.6503
  sSH   OS   1       0.3282   0.5845
  sSH   O2   1       0.3262   0.6497
  sSH    P   1       0.3653   0.6340
  sSH    S   1       0.3564   0.7089
  sSH   SH   1       0.3564   0.7089
  sSH   CU   1       0.3482   0.4158
  sSH   FE   1       0.1782   0.0000
  sSH    K   1       0.4150   0.0257
  sSH   Rb   1       0.4415   0.0185
  sSH   Li   1       0.2795   0.1918
  sSH   Zn   1       0.2762   0.1585
  sSH HW_tip4pew   1       0.1782   0.0000
  sSH OW_tip4pew   1       0.3364   0.5719
  sSH HW_tip4p   1       0.1782   0.0000
  sSH OW_tip4p   1       0.3359   0.5582
  sSH HW_tip5p   1       0.1782   0.0000
  sSH OW_tip5p   1       0.3342   0.5671
  sSH HW_tip4pd   1       0.1782   0.0000
  sSH OW_tip4pd   1       0.3364   0.6928
  sSH   MW   1       0.1782   0.0000
  sSH MCH3   1       0.1782   0.0000
  sSH MNH3   1       0.1782   0.0000
  sSH   c3   1       0.3482   0.4689
  sSH   hc   1       0.3107   0.1776
  sSH    c   1       0.3482   0.4158
  sSH    o   1       0.3262   0.6497
  sSH    n   1       0.3407   0.5845
  sSH   h1   1       0.3017   0.1776
  sSH   ca   1       0.3482   0.4158
  sSH   ha   1       0.3082   0.1736
  sSH   n3   1       0.3407   0.5845
  sSH   hx   1       0.2762   0.1776
  sSH   n4   1       0.3407   0.5845
  sSH   hn   1       0.2316   0.1776
  sCU   Br   1       0.1700   0.0000
  sCU    C   1       0.3400   0.2439
  sCU   C6   1       0.3400   0.2439
  sCU   C5   1       0.3400   0.2439
  sCU   CA   1       0.3400   0.2439
  sCU   CB   1       0.3400   0.2439
  sCU   CC   1       0.3400   0.2439
  sCU   CK   1       0.3400   0.2439
  sCU   CM   1       0.3400   0.2439
  sCU   CN   1       0.3400   0.2439
  sCU   CQ   1       0.3400   0.2439
  sCU   CR   1       0.3400   0.2439
  sCU   CT   1       0.3400   0.2750
  sCU   C1   1       0.3400   0.2750
  sCU   C3   1       0.3400   0.2750
  sCU   C4   1       0.3400   0.2750
  sCU   C7   1       0.3400   0.2750
  sCU   C8   1       0.3400   0.2750
  sCU   C9   1       0.3400   0.2750
  sCU   CV   1       0.3400   0.2439
  sCU   CW   1       0.3400   0.2439
  sCU   C*   1       0.3400   0.2439
  sCU   C0   1       0.3226   0.5638
  sCU    F   1       0.3259   0.2054
  sCU    H   1       0.2234   0.1042
  sCU   HB   1       0.2234   0.1042
  sCU   HC   1       0.3025   0.1042
  sCU   H1   1       0.2936   0.1042
  sCU   H2   1       0.2846   0.1042
  sCU   H3   1       0.2757   0.1042
  sCU   HA   1       0.3000   0.1018
  sCU   H4   1       0.2955   0.1018
  sCU   H5   1       0.2911   0.1018
  sCU   HO   1       0.1700   0.0000
  sCU   HS   1       0.2234   0.1042
  sCU   HW   1       0.1700   0.0000
  sCU   HP   1       0.2680   0.1042
  sCU    I   1       0.3793   0.5259
  sCU   Cl   1       0.3900   0.2630
  sCU   Na   1       0.3364   0.0438
  sCU   IB   1       0.6154   0.2630
  sCU   MG   1       0.2406   0.7865
  sCU    N   1       0.3325   0.3428
  sCU   NA   1       0.3325   0.3428
  sCU   NB   1       0.3325   0.3428
  sCU   NC   1       0.3325   0.3428
  sCU   N2   1       0.3325   0.3428
  sCU   N3   1       0.3325   0.3428
  sCU   N*   1       0.3325   0.3428
  sCU    O   1       0.3180   0.3811
  sCU   OB   1       0.3180   0.3811
  sCU   OW   1       0.3275   0.3243
  sCU   OH   1       0.3233   0.3814
  sCU   O3   1       0.3233   0.3814
  sCU   OS   1       0.3200   0.3428
  sCU   O2   1       0.3180   0.3811
  sCU    P   1       0.3571   0.3719
  sCU    S   1       0.3482   0.4158
  sCU   SH   1       0.3482   0.4158
  sCU   CU   1       0.3400   0.2439
  sCU   FE   1       0.1700   0.0000
  sCU    K   1       0.4068   0.0151
  sCU   Rb   1       0.4333   0.0108
  sCU   Li   1       0.2713   0.1125
  sCU   Zn   1       0.2680   0.0930
  sCU HW_tip4pew   1       0.1700   0.0000
  sCU OW_tip4pew   1       0.3282   0.3355
  sCU HW_tip4p   1       0.1700   0.0000
  sCU OW_tip4p   1       0.3277   0.3274
  sCU HW_tip5p   1       0.1700   0.0000
  sCU OW_tip5p   1       0.3260   0.3326
  sCU HW_tip4pd   1       0.1700   0.0000
  sCU OW_tip4pd   1       0.3282   0.4063
  sCU   MW   1       0.1700   0.0000
  sCU MCH3   1       0.1700   0.0000
  sCU MNH3   1       0.1700   0.0000
  sCU   c3   1       0.3400   0.2750
  sCU   hc   1       0.3025   0.1042
  sCU    c   1       0.3400   0.2439
  sCU    o   1       0.3180   0.3811
  sCU    n   1       0.3325   0.3428
  sCU   h1   1       0.2936   0.1042
  sCU   ca   1       0.3400   0.2439
  sCU   ha   1       0.3000   0.1018
  sCU   n3   1       0.3325   0.3428
  sCU   hx   1       0.2680   0.1042
  sCU   n4   1       0.3325   0.3428
  sCU   hn   1       0.2234   0.1042
  sFE   Br   1       0.0000   0.0000
  sFE    C   1       0.1700   0.0000
  sFE   C6   1       0.1700   0.0000
  sFE   C5   1       0.1700   0.0000
  sFE   CA   1       0.1700   0.0000
  sFE   CB   1       0.1700   0.0000
  sFE   CC   1       0.1700   0.0000
  sFE   CK   1       0.1700   0.0000
  sFE   CM   1       0.1700   0.0000
  sFE   CN   1       0.1700   0.0000
  sFE   CQ   1       0.1700   0.0000
  sFE   CR   1       0.1700   0.0000
  sFE   CT   1       0.1700   0.0000
  sFE   C1   1       0.1700   0.0000
  sFE   C3   1       0.1700   0.0000
  sFE   C4   1       0.1700   0.0000
  sFE   C7   1       0.1700   0.0000
  sFE   C8   1       0.1700   0.0000
  sFE   C9   1       0.1700   0.0000
  sFE   CV   1       0.1700   0.0000
  sFE   CW   1       0.1700   0.0000
  sFE   C*   1       0.1700   0.0000
  sFE   C0   1       0.1526   0.0000
  sFE    F   1       0.1559   0.0000
  sFE    H   1       0.0535   0.0000
  sFE   HB   1       0.0535   0.0000
  sFE   HC   1       0.1325   0.0000
  sFE   H1   1       0.1236   0.0000
  sFE   H2   1       0.1147   0.0000
  sFE   H3   1       0.1057   0.0000
  sFE   HA   1       0.1300   0.0000
  sFE   H4   1       0.1255   0.0000
  sFE   H5   1       0.1211   0.0000
  sFE   HO   1       0.0000   0.0000
  sFE   HS   1       0.0535   0.0000
  sFE   HW   1       0.0000   0.0000
  sFE   HP   1       0.0980   0.0000
  sFE    I   1       0.2094   0.0000
  sFE   Cl   1       0.2201   0.0000
  sFE   Na   1       0.1664   0.0000
  sFE   IB   1       0.4454   0.0000
  sFE   MG   1       0.0706   0.0000
  sFE    N   1       0.1625   0.0000
  sFE   NA   1       0.1625   0.0000
  sFE   NB   1       0.1625   0.0000
  sFE   NC   1       0.1625   0.0000
  sFE   N2   1       0.1625   0.0000
  sFE   N3   1       0.1625   0.0000
  sFE   N*   1       0.1625   0.0000
  sFE    O   1       0.1480   0.0000
  sFE   OB   1       0.1480   0.0000
  sFE   OW   1       0.1575   0.0000
  sFE   OH   1       0.1533   0.0000
  sFE   O3   1       0.1533   0.0000
  sFE   OS   1       0.1500   0.0000
  sFE   O2   1       0.1480   0.0000
  sFE    P   1       0.1871   0.0000
  sFE    S   1       0.1782   0.0000
  sFE   SH   1       0.1782   0.0000
  sFE   CU   1       0.1700   0.0000
  sFE   FE   1       0.0000   0.0000
  sFE    K   1       0.2368   0.0000
  sFE   Rb   1       0.2633   0.0000
  sFE   Li   1       0.1013   0.0000
  sFE   Zn   1       0.0980   0.0000
  sFE HW_tip4pew   1       0.0000   0.0000
  sFE OW_tip4pew   1       0.1582   0.0000
  sFE HW_tip4p   1       0.0000   0.0000
  sFE OW_tip4p   1       0.1577   0.0000
  sFE HW_tip5p   1       0.0000   0.0000
  sFE OW_tip5p   1       0.1560   0.0000
  sFE HW_tip4pd   1       0.0000   0.0000
  sFE OW_tip4pd   1       0.1583   0.0000
  sFE   MW   1       0.0000   0.0000
  sFE MCH3   1       0.0000   0.0000
  sFE MNH3   1       0.0000   0.0000
  sFE   c3   1       0.1700   0.0000
  sFE   hc   1       0.1325   0.0000
  sFE    c   1       0.1700   0.0000
  sFE    o   1       0.1480   0.0000
  sFE    n   1       0.1625   0.0000
  sFE   h1   1       0.1236   0.0000
  sFE   ca   1       0.1700   0.0000
  sFE   ha   1       0.1300   0.0000
  sFE   n3   1       0.1625   0.0000
  sFE   hx   1       0.0980   0.0000
  sFE   n4   1       0.1625   0.0000
  sFE   hn   1       0.0535   0.0000
   sK   Br   1       0.2368   0.0000
   sK    C   1       0.4068   0.0151
   sK   C6   1       0.4068   0.0151
   sK   C5   1       0.4068   0.0151
   sK   CA   1       0.4068   0.0151
   sK   CB   1       0.4068   0.0151
   sK   CC   1       0.4068   0.0151
   sK   CK   1       0.4068   0.0151
   sK   CM   1       0.4068   0.0151
   sK   CN   1       0.4068   0.0151
   sK   CQ   1       0.4068   0.0151
   sK   CR   1       0.4068   0.0151
   sK   CT   1       0.4068   0.0170
   sK   C1   1       0.4068   0.0170
   sK   C3   1       0.4068   0.0170
   sK   C4   1       0.4068   0.0170
   sK   C7   1       0.4068   0.0170
   sK   C8   1       0.4068   0.0170
   sK   C9   1       0.4068   0.0170
   sK   CV   1       0.4068   0.0151
   sK   CW   1       0.4068   0.0151
   sK   C*   1       0.4068   0.0151
   sK   C0   1       0.3894   0.0348
   sK    F   1       0.3927   0.0127
   sK    H   1       0.2903   0.0064
   sK   HB   1       0.2903   0.0064
   sK   HC   1       0.3693   0.0064
   sK   H1   1       0.3604   0.0064
   sK   H2   1       0.3515   0.0064
   sK   H3   1       0.3426   0.0064
   sK   HA   1       0.3668   0.0063
   sK   H4   1       0.3623   0.0063
   sK   H5   1       0.3579   0.0063
   sK   HO   1       0.2368   0.0000
   sK   HS   1       0.2903   0.0064
   sK   HW   1       0.2368   0.0000
   sK   HP   1       0.3348   0.0064
   sK    I   1       0.4462   0.0325
   sK   Cl   1       0.4569   0.0162
   sK   Na   1       0.4032   0.0027
   sK   IB   1       0.6823   0.0162
   sK   MG   1       0.3074   0.0486
   sK    N   1       0.3993   0.0212
   sK   NA   1       0.3993   0.0212
   sK   NB   1       0.3993   0.0212
   sK   NC   1       0.3993   0.0212
   sK   N2   1       0.3993   0.0212
   sK   N3   1       0.3993   0.0212
   sK   N*   1       0.3993   0.0212
   sK    O   1       0.3848   0.0235
   sK   OB   1       0.3848   0.0235
   sK   OW   1       0.3943   0.0200
   sK   OH   1       0.3901   0.0236
   sK   O3   1       0.3901   0.0236
   sK   OS   1       0.3868   0.0212
   sK   O2   1       0.3848   0.0235
   sK    P   1       0.4239   0.0230
   sK    S   1       0.4150   0.0257
   sK   SH   1       0.4150   0.0257
   sK   CU   1       0.4068   0.0151
   sK   FE   1       0.2368   0.0000
   sK    K   1       0.4736   0.0009
   sK   Rb   1       0.5002   0.0007
   sK   Li   1       0.3381   0.0069
   sK   Zn   1       0.3348   0.0057
   sK HW_tip4pew   1       0.2368   0.0000
   sK OW_tip4pew   1       0.3950   0.0207
   sK HW_tip4p   1       0.2368   0.0000
   sK OW_tip4p   1       0.3945   0.0202
   sK HW_tip5p   1       0.2368   0.0000
   sK OW_tip5p   1       0.3928   0.0205
   sK HW_tip4pd   1       0.2368   0.0000
   sK OW_tip4pd   1       0.3951   0.0251
   sK   MW   1       0.2368   0.0000
   sK MCH3   1       0.2368   0.0000
   sK MNH3   1       0.2368   0.0000
   sK   c3   1       0.4068   0.0170
   sK   hc   1       0.3693   0.0064
   sK    c   1       0.4068   0.0151
   sK    o   1       0.3848   0.0235
   sK    n   1       0.3993   0.0212
   sK   h1   1       0.3604   0.0064
   sK   ca   1       0.4068   0.0151
   sK   ha   1       0.3668   0.0063
   sK   n3   1       0.3993   0.0212
   sK   hx   1       0.3348   0.0064
   sK   n4   1       0.3993   0.0212
   sK   hn   1       0.2903   0.0064
  sRb   Br   1       0.2633   0.0000
  sRb    C   1       0.4333   0.0108
  sRb   C6   1       0.4333   0.0108
  sRb   C5   1       0.4333   0.0108
  sRb   CA   1       0.4333   0.0108
  sRb   CB   1       0.4333   0.0108
  sRb   CC   1       0.4333   0.0108
  sRb   CK   1       0.4333   0.0108
  sRb   CM   1       0.4333   0.0108
  sRb   CN   1       0.4333   0.0108
  sRb   CQ   1       0.4333   0.0108
  sRb   CR   1       0.4333   0.0108
  sRb   CT   1       0.4333   0.0122
  sRb   C1   1       0.4333   0.0122
  sRb   C3   1       0.4333   0.0122
  sRb   C4   1       0.4333   0.0122
  sRb   C7   1       0.4333   0.0122
  sRb   C8   1       0.4333   0.0122
  sRb   C9   1       0.4333   0.0122
  sRb   CV   1       0.4333   0.0108
  sRb   CW   1       0.4333   0.0108
  sRb   C*   1       0.4333   0.0108
  sRb   C0   1       0.4160   0.0251
  sRb    F   1       0.4193   0.0091
  sRb    H   1       0.3168   0.0046
  sRb   HB   1       0.3168   0.0046
  sRb   HC   1       0.3958   0.0046
  sRb   H1   1       0.3869   0.0046
  sRb   H2   1       0.3780   0.0046
  sRb   H3   1       0.3691   0.0046
  sRb   HA   1       0.3933   0.0045
  sRb   H4   1       0.3889   0.0045
  sRb   H5   1       0.3844   0.0045
  sRb   HO   1       0.2633   0.0000
  sRb   HS   1       0.3168   0.0046
  sRb   HW   1       0.2633   0.0000
  sRb   HP   1       0.3613   0.0046
  sRb    I   1       0.4727   0.0234
  sRb   Cl   1       0.4834   0.0117
  sRb   Na   1       0.4298   0.0019
  sRb   IB   1       0.7088   0.0117
  sRb   MG   1       0.3340   0.0350
  sRb    N   1       0.4258   0.0152
  sRb   NA   1       0.4258   0.0152
  sRb   NB   1       0.4258   0.0152
  sRb   NC   1       0.4258   0.0152
  sRb   N2   1       0.4258   0.0152
  sRb   N3   1       0.4258   0.0152
  sRb   N*   1       0.4258   0.0152
  sRb    O   1       0.4113   0.0169
  sRb   OB   1       0.4113   0.0169
  sRb   OW   1       0.4209   0.0144
  sRb   OH   1       0.4167   0.0170
  sRb   O3   1       0.4167   0.0170
  sRb   OS   1       0.4133   0.0152
  sRb   O2   1       0.4113   0.0169
  sRb    P   1       0.4504   0.0165
  sRb    S   1       0.4415   0.0185
  sRb   SH   1       0.4415   0.0185
  sRb   CU   1       0.4333   0.0108
  sRb   FE   1       0.2633   0.0000
  sRb    K   1       0.5002   0.0007
  sRb   Rb   1       0.5267   0.0005
  sRb   Li   1       0.3646   0.0050
  sRb   Zn   1       0.3613   0.0041
  sRb HW_tip4pew   1       0.2633   0.0000
  sRb OW_tip4pew   1       0.4216   0.0149
  sRb HW_tip4p   1       0.2633   0.0000
  sRb OW_tip4p   1       0.4210   0.0146
  sRb HW_tip5p   1       0.2633   0.0000
  sRb OW_tip5p   1       0.4193   0.0148
  sRb HW_tip4pd   1       0.2633   0.0000
  sRb OW_tip4pd   1       0.4216   0.0181
  sRb   MW   1       0.2633   0.0000
  sRb MCH3   1       0.2633   0.0000
  sRb MNH3   1       0.2633   0.0000
  sRb   c3   1       0.4333   0.0122
  sRb   hc   1       0.3958   0.0046
  sRb    c   1       0.4333   0.0108
  sRb    o   1       0.4113   0.0169
  sRb    n   1       0.4258   0.0152
  sRb   h1   1       0.3869   0.0046
  sRb   ca   1       0.4333   0.0108
  sRb   ha   1       0.3933   0.0045
  sRb   n3   1       0.4258   0.0152
  sRb   hx   1       0.3613   0.0046
  sRb   n4   1       0.4258   0.0152
  sRb   hn   1       0.3168   0.0046
   Cs   Br   1       0.3025   0.0000
   Cs    C   1       0.4724   0.0093
   Cs   C6   1       0.4724   0.0093
   Cs   C5   1       0.4724   0.0093
   Cs   CA   1       0.4724   0.0093
   Cs   CB   1       0.4724   0.0093
   Cs   CC   1       0.4724   0.0093
   Cs   CK   1       0.4724   0.0093
   Cs   CM   1       0.4724   0.0093
   Cs   CN   1       0.4724   0.0093
   Cs   CQ   1       0.4724   0.0093
   Cs   CR   1       0.4724   0.0093
   Cs   CT   1       0.4724   0.0105
   Cs   C1   1       0.4724   0.0105
   Cs   C3   1       0.4724   0.0105
   Cs   C4   1       0.4724   0.0105
   Cs   C7   1       0.4724   0.0105
   Cs   C8   1       0.4724   0.0105
   Cs   C9   1       0.4724   0.0105
   Cs   CV   1       0.4724   0.0093
   Cs   CW   1       0.4724   0.0093
   Cs   C*   1       0.4724   0.0093
   Cs   C0   1       0.4551   0.0215
   Cs    F   1       0.4584   0.0078
   Cs    H   1       0.3559   0.0040
   Cs   HB   1       0.3559   0.0040
   Cs   HC   1       0.4349   0.0040
   Cs   H1   1       0.4260   0.0040
   Cs   H2   1       0.4171   0.0040
   Cs   H3   1       0.4082   0.0040
   Cs   HA   1       0.4324   0.0039
   Cs   H4   1       0.4280   0.0039
   Cs   H5   1       0.4235   0.0039
   Cs   HO   1       0.3025   0.0000
   Cs   HS   1       0.3559   0.0040
   Cs   HW   1       0.3025   0.0000
   Cs   HP   1       0.4005   0.0040
   Cs    I   1       0.5118   0.0200
   Cs   Cl   1       0.5225   0.0100
   Cs   Na   1       0.4689   0.0017
   Cs   IB   1       0.7479   0.0100
   Cs   MG   1       0.3731   0.0300
   Cs    N   1       0.4650   0.0131
   Cs   NA   1       0.4650   0.0131
   Cs   NB   1       0.4650   0.0131
   Cs   NC   1       0.4650   0.0131
   Cs   N2   1       0.4650   0.0131
   Cs   N3   1       0.4650   0.0131
   Cs   N*   1       0.4650   0.0131
   Cs    O   1       0.4505   0.0145
   Cs   OB   1       0.4505   0.0145
   Cs   OW   1       0.4600   0.0124
   Cs   OH   1       0.4558   0.0145
   Cs   O3   1       0.4558   0.0145
   Cs   OS   1       0.4525   0.0131
   Cs   O2   1       0.4505   0.0145
   Cs    P   1       0.4895   0.0142
   Cs    S   1       0.4806   0.0158
   Cs   SH   1       0.4806   0.0158
   Cs   CU   1       0.4724   0.0093
   Cs   FE   1       0.3025   0.0000
   Cs    K   1       0.5393   0.0006
   Cs   Rb   1       0.5658   0.0004
   Cs   Li   1       0.4038   0.0043
   Cs   Zn   1       0.4005   0.0035
   Cs HW_tip4pew   1       0.3025   0.0000
   Cs OW_tip4pew   1       0.4607   0.0128
   Cs HW_tip4p   1       0.3025   0.0000
   Cs OW_tip4p   1       0.4601   0.0125
   Cs HW_tip5p   1       0.3025   0.0000
   Cs OW_tip5p   1       0.4585   0.0127
   Cs HW_tip4pd   1       0.3025   0.0000
   Cs OW_tip4pd   1       0.4607   0.0155
   Cs   MW   1       0.3025   0.0000
   Cs MCH3   1       0.3025   0.0000
   Cs MNH3   1       0.3025   0.0000
   Cs   c3   1       0.4724   0.0105
   Cs   hc   1       0.4349   0.0040
   Cs    c   1       0.4724   0.0093
   Cs    o   1       0.4505   0.0145
   Cs    n   1       0.4650   0.0131
   Cs   h1   1       0.4260   0.0040
   Cs   ca   1       0.4724   0.0093
   Cs   ha   1       0.4324   0.0039
   Cs   n3   1       0.4650   0.0131
   Cs   hx   1       0.4005   0.0040
   Cs   n4   1       0.4650   0.0131
   Cs   hn   1       0.3559   0.0040
  sCs   Br   1       0.3025   0.0000
  sCs    C   1       0.4724   0.0075
  sCs   C6   1       0.4724   0.0075
  sCs   C5   1       0.4724   0.0075
  sCs   CA   1       0.4724   0.0075
  sCs   CB   1       0.4724   0.0075
  sCs   CC   1       0.4724   0.0075
  sCs   CK   1       0.4724   0.0075
  sCs   CM   1       0.4724   0.0075
  sCs   CN   1       0.4724   0.0075
  sCs   CQ   1       0.4724   0.0075
  sCs   CR   1       0.4724   0.0075
  sCs   CT   1       0.4724   0.0084
  sCs   C1   1       0.4724   0.0084
  sCs   C3   1       0.4724   0.0084
  sCs   C4   1       0.4724   0.0084
  sCs   C7   1       0.4724   0.0084
  sCs   C8   1       0.4724   0.0084
  sCs   C9   1       0.4724   0.0084
  sCs   CV   1       0.4724   0.0075
  sCs   CW   1       0.4724   0.0075
  sCs   C*   1       0.4724   0.0075
  sCs   C0   1       0.4551   0.0173
  sCs    F   1       0.4584   0.0063
  sCs    H   1       0.3559   0.0032
  sCs   HB   1       0.3559   0.0032
  sCs   HC   1       0.4349   0.0032
  sCs   H1   1       0.4260   0.0032
  sCs   H2   1       0.4171   0.0032
  sCs   H3   1       0.4082   0.0032
  sCs   HA   1       0.4324   0.0031
  sCs   H4   1       0.4280   0.0031
  sCs   H5   1       0.4235   0.0031
  sCs   HO   1       0.3025   0.0000
  sCs   HS   1       0.3559   0.0032
  sCs   HW   1       0.3025   0.0000
  sCs   HP   1       0.4005   0.0032
  sCs    I   1       0.5118   0.0161
  sCs   Cl   1       0.5225   0.0080
  sCs   Na   1       0.4689   0.0013
  sCs   IB   1       0.7479   0.0080
  sCs   MG   1       0.3731   0.0241
  sCs    N   1       0.4650   0.0105
  sCs   NA   1       0.4650   0.0105
  sCs   NB   1       0.4650   0.0105
  sCs   NC   1       0.4650   0.0105
  sCs   N2   1       0.4650   0.0105
  sCs   N3   1       0.4650   0.0105
  sCs   N*   1       0.4650   0.0105
  sCs    O   1       0.4505   0.0117
  sCs   OB   1       0.4505   0.0117
  sCs   OW   1       0.4600   0.0099
  sCs   OH   1       0.4558   0.0117
  sCs   O3   1       0.4558   0.0117
  sCs   OS   1       0.4525   0.0105
  sCs   O2   1       0.4505   0.0117
  sCs    P   1       0.4895   0.0114
  sCs    S   1       0.4806   0.0127
  sCs   SH   1       0.4806   0.0127
  sCs   CU   1       0.4724   0.0075
  sCs   FE   1       0.3025   0.0000
  sCs    K   1       0.5393   0.0005
  sCs   Rb   1       0.5658   0.0003
  sCs   Li   1       0.4038   0.0034
  sCs   Zn   1       0.4005   0.0028
  sCs HW_tip4pew   1       0.3025   0.0000
  sCs OW_tip4pew   1       0.4607   0.0103
  sCs HW_tip4p   1       0.3025   0.0000
  sCs OW_tip4p   1       0.4601   0.0100
  sCs HW_tip5p   1       0.3025   0.0000
  sCs OW_tip5p   1       0.4585   0.0102
  sCs HW_tip4pd   1       0.3025   0.0000
  sCs OW_tip4pd   1       0.4607   0.0124
  sCs   MW   1       0.3025   0.0000
  sCs MCH3   1       0.3025   0.0000
  sCs MNH3   1       0.3025   0.0000
  sCs   c3   1       0.4724   0.0084
  sCs   hc   1       0.4349   0.0032
  sCs    c   1       0.4724   0.0075
  sCs    o   1       0.4505   0.0117
  sCs    n   1       0.4650   0.0105
  sCs   h1   1       0.4260   0.0032
  sCs   ca   1       0.4724   0.0075
  sCs   ha   1       0.4324   0.0031
  sCs   n3   1       0.4650   0.0105
  sCs   hx   1       0.4005   0.0032
  sCs   n4   1       0.4650   0.0105
  sCs   hn   1       0.3559   0.0032
OW_spc   Br   1       0.1583   0.0000
OW_spc    C   1       0.3283   0.4082
OW_spc   C6   1       0.3283   0.4082
OW_spc   C5   1       0.3283   0.4082
OW_spc   CA   1       0.3283   0.4082
OW_spc   CB   1       0.3283   0.4082
OW_spc   CC   1       0.3283   0.4082
OW_spc   CK   1       0.3283   0.4082
OW_spc   CM   1       0.3283   0.4082
OW_spc   CN   1       0.3283   0.4082
OW_spc   CQ   1       0.3283   0.4082
OW_spc   CR   1       0.3283   0.4082
OW_spc   CT   1       0.3283   0.4603
OW_spc   C1   1       0.3283   0.4603
OW_spc   C3   1       0.3283   0.4603
OW_spc   C4   1       0.3283   0.4603
OW_spc   C7   1       0.3283   0.4603
OW_spc   C8   1       0.3283   0.4603
OW_spc   C9   1       0.3283   0.4603
OW_spc   CV   1       0.3283   0.4082
OW_spc   CW   1       0.3283   0.4082
OW_spc   C*   1       0.3283   0.4082
OW_spc   C0   1       0.3109   0.9437
OW_spc    F   1       0.3142   0.3437
OW_spc    H   1       0.2117   0.1744
OW_spc   HB   1       0.2117   0.1744
OW_spc   HC   1       0.2908   0.1744
OW_spc   H1   1       0.2818   0.1744
OW_spc   H2   1       0.2729   0.1744
OW_spc   H3   1       0.2640   0.1744
OW_spc   HA   1       0.2883   0.1705
OW_spc   H4   1       0.2838   0.1705
OW_spc   H5   1       0.2794   0.1705
OW_spc   HO   1       0.1583   0.0000
OW_spc   HS   1       0.2117   0.1744
OW_spc   HW   1       0.1583   0.0000
OW_spc   HP   1       0.2563   0.1744
OW_spc    I   1       0.3676   0.8802
OW_spc   Cl   1       0.3783   0.4401
OW_spc   Na   1       0.3247   0.0733
OW_spc   IB   1       0.6037   0.4401
OW_spc   MG   1       0.2289   1.3165
OW_spc    N   1       0.3208   0.5738
OW_spc   NA   1       0.3208   0.5738
OW_spc   NB   1       0.3208   0.5738
OW_spc   NC   1       0.3208   0.5738
OW_spc   N2   1       0.3208   0.5738
OW_spc   N3   1       0.3208   0.5738
OW_spc   N*   1       0.3208   0.5738
OW_spc    O   1       0.3063   0.6378
OW_spc   OB   1       0.3063   0.6378
OW_spc   OW   1       0.3158   0.5428
OW_spc   OH   1       0.3116   0.6384
OW_spc   O3   1       0.3116   0.6384
OW_spc   OS   1       0.3083   0.5738
OW_spc   O2   1       0.3063   0.6378
OW_spc    P   1       0.3454   0.6224
OW_spc    S   1       0.3365   0.6959
OW_spc   SH   1       0.3365   0.6959
OW_spc   CU   1       0.3283   0.4082
OW_spc   FE   1       0.1583   0.0000
OW_spc    K   1       0.3951   0.0252
OW_spc   Rb   1       0.4216   0.0181
OW_spc   Li   1       0.2596   0.1883
OW_spc   Zn   1       0.2563   0.1556
OW_spc HW_tip4pew   1       0.1583   0.0000
OW_spc OW_tip4pew   1       0.3165   0.5615
OW_spc HW_tip4p   1       0.1583   0.0000
OW_spc OW_tip4p   1       0.3160   0.5479
OW_spc HW_tip5p   1       0.1583   0.0000
OW_spc OW_tip5p   1       0.3143   0.5567
OW_spc HW_tip4pd   1       0.1583   0.0000
OW_spc OW_tip4pd   1       0.3165   0.6801
OW_spc   MW   1       0.1583   0.0000
OW_spc MCH3   1       0.1583   0.0000
OW_spc MNH3   1       0.1583   0.0000
OW_spc   c3   1       0.3283   0.4603
OW_spc   hc   1       0.2908   0.1744
OW_spc    c   1       0.3283   0.4082
OW_spc    o   1       0.3063   0.6378
OW_spc    n   1       0.3208   0.5738
OW_spc   h1   1       0.2818   0.1744
OW_spc   ca   1       0.3283   0.4082
OW_spc   ha   1       0.2883   0.1705
OW_spc   n3   1       0.3208   0.5738
OW_spc   hx   1       0.2563   0.1744
OW_spc   n4   1       0.3208   0.5738
OW_spc   hn   1       0.2117   0.1744
sOW_spc   Br   1       0.1583   0.0000
sOW_spc    C   1       0.3283   0.3279
sOW_spc   C6   1       0.3283   0.3279
sOW_spc   C5   1       0.3283   0.3279
sOW_spc   CA   1       0.3283   0.3279
sOW_spc   CB   1       0.3283   0.3279
sOW_spc   CC   1       0.3283   0.3279
sOW_spc   CK   1       0.3283   0.3279
sOW_spc   CM   1       0.3283   0.3279
sOW_spc   CN   1       0.3283   0.3279
sOW_spc   CQ   1       0.3283   0.3279
sOW_spc   CR   1       0.3283   0.3279
sOW_spc   CT   1       0.3283   0.3698
sOW_spc   C1   1       0.3283   0.3698
sOW_spc   C3   1       0.3283   0.3698
sOW_spc   C4   1       0.3283   0.3698
sOW_spc   C7   1       0.3283   0.3698
sOW_spc   C8   1       0.3283   0.3698
sOW_spc   C9   1       0.3283   0.3698
sOW_spc   CV   1       0.3283   0.3279
sOW_spc   CW   1       0.3283   0.3279
sOW_spc   C*   1       0.3283   0.3279
sOW_spc   C0   1       0.3109   0.7582
sOW_spc    F   1       0.3142   0.2762
sOW_spc    H   1       0.2117   0.1401
sOW_spc   HB   1       0.2117   0.1401
sOW_spc   HC   1       0.2908   0.1401
sOW_spc   H1   1       0.2818   0.1401
sOW_spc   H2   1       0.2729   0.1401
sOW_spc   H3   1       0.2640   0.1401
sOW_spc   HA   1       0.2883   0.1369
sOW_spc   H4   1       0.2838   0.1369
sOW_spc   H5   1       0.2794   0.1369
sOW_spc   HO   1       0.1583   0.0000
sOW_spc   HS   1       0.2117   0.1401
sOW_spc   HW   1       0.1583   0.0000
sOW_spc   HP   1       0.2563   0.1401
sOW_spc    I   1       0.3676   0.7072
sOW_spc   Cl   1       0.3783   0.3536
sOW_spc   Na   1       0.3247   0.0588
sOW_spc   IB   1       0.6037   0.3536
sOW_spc   MG   1       0.2289   1.0576
sOW_spc    N   1       0.3208   0.4610
sOW_spc   NA   1       0.3208   0.4610
sOW_spc   NB   1       0.3208   0.4610
sOW_spc   NC   1       0.3208   0.4610
sOW_spc   N2   1       0.3208   0.4610
sOW_spc   N3   1       0.3208   0.4610
sOW_spc   N*   1       0.3208   0.4610
sOW_spc    O   1       0.3063   0.5124
sOW_spc   OB   1       0.3063   0.5124
sOW_spc   OW   1       0.3158   0.4361
sOW_spc   OH   1       0.3116   0.5129
sOW_spc   O3   1       0.3116   0.5129
sOW_spc   OS   1       0.3083   0.4610
sOW_spc   O2   1       0.3063   0.5124
sOW_spc    P   1       0.3454   0.5000
sOW_spc    S   1       0.3365   0.5591
sOW_spc   SH   1       0.3365   0.5591
sOW_spc   CU   1       0.3283   0.3279
sOW_spc   FE   1       0.1583   0.0000
sOW_spc    K   1       0.3951   0.0203
sOW_spc   Rb   1       0.4216   0.0146
sOW_spc   Li   1       0.2596   0.1513
sOW_spc   Zn   1       0.2563   0.1250
sOW_spc HW_tip4pew   1       0.1583   0.0000
sOW_spc OW_tip4pew   1       0.3165   0.4511
sOW_spc HW_tip4p   1       0.1583   0.0000
sOW_spc OW_tip4p   1       0.3160   0.4402
sOW_spc HW_tip5p   1       0.1583   0.0000
sOW_spc OW_tip5p   1       0.3143   0.4473
sOW_spc HW_tip4pd   1       0.1583   0.0000
sOW_spc OW_tip4pd   1       0.3165   0.5464
sOW_spc   MW   1       0.1583   0.0000
sOW_spc MCH3   1       0.1583   0.0000
sOW_spc MNH3   1       0.1583   0.0000
sOW_spc   c3   1       0.3283   0.3698
sOW_spc   hc   1       0.2908   0.1401
sOW_spc    c   1       0.3283   0.3279
sOW_spc    o   1       0.3063   0.5124
sOW_spc    n   1       0.3208   0.4610
sOW_spc   h1   1       0.2818   0.1401
sOW_spc   ca   1       0.3283   0.3279
sOW_spc   ha   1       0.2883   0.1369
sOW_spc   n3   1       0.3208   0.4610
sOW_spc   hx   1       0.2563   0.1401
sOW_spc   n4   1       0.3208   0.4610
sOW_spc   hn   1       0.2117   0.1401
HW_spc   Br   1       0.0000   0.0000
HW_spc    C   1       0.1700   0.0000
HW_spc   C6   1       0.1700   0.0000
HW_spc   C5   1       0.1700   0.0000
HW_spc   CA   1       0.1700   0.0000
HW_spc   CB   1       0.1700   0.0000
HW_spc   CC   1       0.1700   0.0000
HW_spc   CK   1       0.1700   0.0000
HW_spc   CM   1       0.1700   0.0000
HW_spc   CN   1       0.1700   0.0000
HW_spc   CQ   1       0.1700   0.0000
HW_spc   CR   1       0.1700   0.0000
HW_spc   CT   1       0.1700   0.0000
HW_spc   C1   1       0.1700   0.0000
HW_spc   C3   1       0.1700   0.0000
HW_spc   C4   1       0.1700   0.0000
HW_spc   C7   1       0.1700   0.0000
HW_spc   C8   1       0.1700   0.0000
HW_spc   C9   1       0.1700   0.0000
HW_spc   CV   1       0.1700   0.0000
HW_spc   CW   1       0.1700   0.0000
HW_spc   C*   1       0.1700   0.0000
HW_spc   C0   1       0.1526   0.0000
HW_spc    F   1       0.1559   0.0000
HW_spc    H   1       0.0535   0.0000
HW_spc   HB   1       0.0535   0.0000
HW_spc   HC   1       0.1325   0.0000
HW_spc   H1   1       0.1236   0.0000
HW_spc   H2   1       0.1147   0.0000
HW_spc   H3   1       0.1057   0.0000
HW_spc   HA   1       0.1300   0.0000
HW_spc   H4   1       0.1255   0.0000
HW_spc   H5   1       0.1211   0.0000
HW_spc   HO   1       0.0000   0.0000
HW_spc   HS   1       0.0535   0.0000
HW_spc   HW   1       0.0000   0.0000
HW_spc   HP   1       0.0980   0.0000
HW_spc    I   1       0.2094   0.0000
HW_spc   Cl   1       0.2201   0.0000
HW_spc   Na   1       0.1664   0.0000
HW_spc   IB   1       0.4454   0.0000
HW_spc   MG   1       0.0706   0.0000
HW_spc    N   1       0.1625   0.0000
HW_spc   NA   1       0.1625   0.0000
HW_spc   NB   1       0.1625   0.0000
HW_spc   NC   1       0.1625   0.0000
HW_spc   N2   1       0.1625   0.0000
HW_spc   N3   1       0.1625   0.0000
HW_spc   N*   1       0.1625   0.0000
HW_spc    O   1       0.1480   0.0000
HW_spc   OB   1       0.1480   0.0000
HW_spc   OW   1       0.1575   0.0000
HW_spc   OH   1       0.1533   0.0000
HW_spc   O3   1       0.1533   0.0000
HW_spc   OS   1       0.1500   0.0000
HW_spc   O2   1       0.1480   0.0000
HW_spc    P   1       0.1871   0.0000
HW_spc    S   1       0.1782   0.0000
HW_spc   SH   1       0.1782   0.0000
HW_spc   CU   1       0.1700   0.0000
HW_spc   FE   1       0.0000   0.0000
HW_spc    K   1       0.2368   0.0000
HW_spc   Rb   1       0.2633   0.0000
HW_spc   Li   1       0.1013   0.0000
HW_spc   Zn   1       0.0980   0.0000
HW_spc HW_tip4pew   1       0.0000   0.0000
HW_spc OW_tip4pew   1       0.1582   0.0000
HW_spc HW_tip4p   1       0.0000   0.0000
HW_spc OW_tip4p   1       0.1577   0.0000
HW_spc HW_tip5p   1       0.0000   0.0000
HW_spc OW_tip5p   1       0.1560   0.0000
HW_spc HW_tip4pd   1       0.0000   0.0000
HW_spc OW_tip4pd   1       0.1583   0.0000
HW_spc   MW   1       0.0000   0.0000
HW_spc MCH3   1       0.0000   0.0000
HW_spc MNH3   1       0.0000   0.0000
HW_spc   c3   1       0.1700   0.0000
HW_spc   hc   1       0.1325   0.0000
HW_spc    c   1       0.1700   0.0000
HW_spc    o   1       0.1480   0.0000
HW_spc    n   1       0.1625   0.0000
HW_spc   h1   1       0.1236   0.0000
HW_spc   ca   1       0.1700   0.0000
HW_spc   ha   1       0.1300   0.0000
HW_spc   n3   1       0.1625   0.0000
HW_spc   hx   1       0.0980   0.0000
HW_spc   n4   1       0.1625   0.0000
HW_spc   hn   1       0.0535   0.0000
sHW_spc   Br   1       0.0000   0.0000
sHW_spc    C   1       0.1700   0.0000
sHW_spc   C6   1       0.1700   0.0000
sHW_spc   C5   1       0.1700   0.0000
sHW_spc   CA   1       0.1700   0.0000
sHW_spc   CB   1       0.1700   0.0000
sHW_spc   CC   1       0.1700   0.0000
sHW_spc   CK   1       0.1700   0.0000
sHW_spc   CM   1       0.1700   0.0000
sHW_spc   CN   1       0.1700   0.0000
sHW_spc   CQ   1       0.1700   0.0000
sHW_spc   CR   1       0.1700   0.0000
sHW_spc   CT   1       0.1700   0.0000
sHW_spc   C1   1       0.1700   0.0000
sHW_spc   C3   1       0.1700   0.0000
sHW_spc   C4   1       0.1700   0.0000
sHW_spc   C7   1       0.1700   0.0000
sHW_spc   C8   1       0.1700   0.0000
sHW_spc   C9   1       0.1700   0.0000
sHW_spc   CV   1       0.1700   0.0000
sHW_spc   CW   1       0.1700   0.0000
sHW_spc   C*   1       0.1700   0.0000
sHW_spc   C0   1       0.1526   0.0000
sHW_spc    F   1       0.1559   0.0000
sHW_spc    H   1       0.0535   0.0000
sHW_spc   HB   1       0.0535   0.0000
sHW_spc   HC   1       0.1325   0.0000
sHW_spc   H1   1       0.1236   0.0000
sHW_spc   H2   1       0.1147   0.0000
sHW_spc   H3   1       0.1057   0.0000
sHW_spc   HA   1       0.1300   0.0000
sHW_spc   H4   1       0.1255   0.0000
sHW_spc   H5   1       0.1211   0.0000
sHW_spc   HO   1       0.0000   0.0000
sHW_spc   HS   1       0.0535   0.0000
sHW_spc   HW   1       0.0000   0.0000
sHW_spc   HP   1       0.0980   0.0000
sHW_spc    I   1       0.2094   0.0000
sHW_spc   Cl   1       0.2201   0.0000
sHW_spc   Na   1       0.1664   0.0000
sHW_spc   IB   1       0.4454   0.0000
sHW_spc   MG   1       0.0706   0.0000
sHW_spc    N   1       0.1625   0.0000
sHW_spc   NA   1       0.1625   0.0000
sHW_spc   NB   1       0.1625   0.0000
sHW_spc   NC   1       0.1625   0.0000
sHW_spc   N2   1       0.1625   0.0000
sHW_spc   N3   1       0.1625   0.0000
sHW_spc   N*   1       0.1625   0.0000
sHW_spc    O   1       0.1480   0.0000
sHW_spc   OB   1       0.1480   0.0000
sHW_spc   OW   1       0.1575   0.0000
sHW_spc   OH   1       0.1533   0.0000
sHW_spc   O3   1       0.1533   0.0000
sHW_spc   OS   1       0.1500   0.0000
sHW_spc   O2   1       0.1480   0.0000
sHW_spc    P   1       0.1871   0.0000
sHW_spc    S   1       0.1782   0.0000
sHW_spc   SH   1       0.1782   0.0000
sHW_spc   CU   1       0.1700   0.0000
sHW_spc   FE   1       0.0000   0.0000
sHW_spc    K   1       0.2368   0.0000
sHW_spc   Rb   1       0.2633   0.0000
sHW_spc   Li   1       0.1013   0.0000
sHW_spc   Zn   1       0.0980   0.0000
sHW_spc HW_tip4pew   1       0.0000   0.0000
sHW_spc OW_tip4pew   1       0.1582   0.0000
sHW_spc HW_tip4p   1       0.0000   0.0000
sHW_spc OW_tip4p   1       0.1577   0.0000
sHW_spc HW_tip5p   1       0.0000   0.0000
sHW_spc OW_tip5p   1       0.1560   0.0000
sHW_spc HW_tip4pd   1       0.0000   0.0000
sHW_spc OW_tip4pd   1       0.1583   0.0000
sHW_spc   MW   1       0.0000   0.0000
sHW_spc MCH3   1       0.0000   0.0000
sHW_spc MNH3   1       0.0000   0.0000
sHW_spc   c3   1       0.1700   0.0000
sHW_spc   hc   1       0.1325   0.0000
sHW_spc    c   1       0.1700   0.0000
sHW_spc    o   1       0.1480   0.0000
sHW_spc    n   1       0.1625   0.0000
sHW_spc   h1   1       0.1236   0.0000
sHW_spc   ca   1       0.1700   0.0000
sHW_spc   ha   1       0.1300   0.0000
sHW_spc   n3   1       0.1625   0.0000
sHW_spc   hx   1       0.0980   0.0000
sHW_spc   n4   1       0.1625   0.0000
sHW_spc   hn   1       0.0535   0.0000
  sLi   Br   1       0.1013   0.0000
  sLi    C   1       0.2713   0.1125
  sLi   C6   1       0.2713   0.1125
  sLi   C5   1       0.2713   0.1125
  sLi   CA   1       0.2713   0.1125
  sLi   CB   1       0.2713   0.1125
  sLi   CC   1       0.2713   0.1125
  sLi   CK   1       0.2713   0.1125
  sLi   CM   1       0.2713   0.1125
  sLi   CN   1       0.2713   0.1125
  sLi   CQ   1       0.2713   0.1125
  sLi   CR   1       0.2713   0.1125
  sLi   CT   1       0.2713   0.1269
  sLi   C1   1       0.2713   0.1269
  sLi   C3   1       0.2713   0.1269
  sLi   C4   1       0.2713   0.1269
  sLi   C7   1       0.2713   0.1269
  sLi   C8   1       0.2713   0.1269
  sLi   C9   1       0.2713   0.1269
  sLi   CV   1       0.2713   0.1125
  sLi   CW   1       0.2713   0.1125
  sLi   C*   1       0.2713   0.1125
  sLi   C0   1       0.2539   0.2601
  sLi    F   1       0.2572   0.0947
  sLi    H   1       0.1547   0.0481
  sLi   HB   1       0.1547   0.0481
  sLi   HC   1       0.2338   0.0481
  sLi   H1   1       0.2249   0.0481
  sLi   H2   1       0.2160   0.0481
  sLi   H3   1       0.2070   0.0481
  sLi   HA   1       0.2313   0.0470
  sLi   H4   1       0.2268   0.0470
  sLi   H5   1       0.2224   0.0470
  sLi   HO   1       0.1013   0.0000
  sLi   HS   1       0.1547   0.0481
  sLi   HW   1       0.1013   0.0000
  sLi   HP   1       0.1993   0.0481
  sLi    I   1       0.3107   0.2426
  sLi   Cl   1       0.3213   0.1213
  sLi   Na   1       0.2677   0.0202
  sLi   IB   1       0.5467   0.1213
  sLi   MG   1       0.1719   0.3628
  sLi    N   1       0.2638   0.1582
  sLi   NA   1       0.2638   0.1582
  sLi   NB   1       0.2638   0.1582
  sLi   NC   1       0.2638   0.1582
  sLi   N2   1       0.2638   0.1582
  sLi   N3   1       0.2638   0.1582
  sLi   N*   1       0.2638   0.1582
  sLi    O   1       0.2493   0.1758
  sLi   OB   1       0.2493   0.1758
  sLi   OW   1       0.2588   0.1496
  sLi   OH   1       0.2546   0.1759
  sLi   O3   1       0.2546   0.1759
  sLi   OS   1       0.2513   0.1582
  sLi   O2   1       0.2493   0.1758
  sLi    P   1       0.2884   0.1715
  sLi    S   1       0.2795   0.1918
  sLi   SH   1       0.2795   0.1918
  sLi   CU   1       0.2713   0.1125
  sLi   FE   1       0.1013   0.0000
  sLi    K   1       0.3381   0.0069
  sLi   Rb   1       0.3646   0.0050
  sLi   Li   1       0.2026   0.0519
  sLi   Zn   1       0.1993   0.0429
  sLi HW_tip4pew   1       0.1013   0.0000
  sLi OW_tip4pew   1       0.2595   0.1547
  sLi HW_tip4p   1       0.1013   0.0000
  sLi OW_tip4p   1       0.2590   0.1510
  sLi HW_tip5p   1       0.1013   0.0000
  sLi OW_tip5p   1       0.2573   0.1534
  sLi HW_tip4pd   1       0.1013   0.0000
  sLi OW_tip4pd   1       0.2595   0.1874
  sLi   MW   1       0.1013   0.0000
  sLi MCH3   1       0.1013   0.0000
  sLi MNH3   1       0.1013   0.0000
  sLi   c3   1       0.2713   0.1269
  sLi   hc   1       0.2338   0.0481
  sLi    c   1       0.2713   0.1125
  sLi    o   1       0.2493   0.1758
  sLi    n   1       0.2638   0.1582
  sLi   h1   1       0.2249   0.0481
  sLi   ca   1       0.2713   0.1125
  sLi   ha   1       0.2313   0.0470
  sLi   n3   1       0.2638   0.1582
  sLi   hx   1       0.1993   0.0481
  sLi   n4   1       0.2638   0.1582
  sLi   hn   1       0.1547   0.0481
  sZn   Br   1       0.0980   0.0000
  sZn    C   1       0.2680   0.0930
  sZn   C6   1       0.2680   0.0930
  sZn   C5   1       0.2680   0.0930
  sZn   CA   1       0.2680   0.0930
  sZn   CB   1       0.2680   0.0930
  sZn   CC   1       0.2680   0.0930
  sZn   CK   1       0.2680   0.0930
  sZn   CM   1       0.2680   0.0930
  sZn   CN   1       0.2680   0.0930
  sZn   CQ   1       0.2680   0.0930
  sZn   CR   1       0.2680   0.0930
  sZn   CT   1       0.2680   0.1049
  sZn   C1   1       0.2680   0.1049
  sZn   C3   1       0.2680   0.1049
  sZn   C4   1       0.2680   0.1049
  sZn   C7   1       0.2680   0.1049
  sZn   C8   1       0.2680   0.1049
  sZn   C9   1       0.2680   0.1049
  sZn   CV   1       0.2680   0.0930
  sZn   CW   1       0.2680   0.0930
  sZn   C*   1       0.2680   0.0930
  sZn   C0   1       0.2506   0.2150
  sZn    F   1       0.2539   0.0783
  sZn    H   1       0.1515   0.0397
  sZn   HB   1       0.1515   0.0397
  sZn   HC   1       0.2305   0.0397
  sZn   H1   1       0.2216   0.0397
  sZn   H2   1       0.2127   0.0397
  sZn   H3   1       0.2037   0.0397
  sZn   HA   1       0.2280   0.0388
  sZn   H4   1       0.2235   0.0388
  sZn   H5   1       0.2191   0.0388
  sZn   HO   1       0.0980   0.0000
  sZn   HS   1       0.1515   0.0397
  sZn   HW   1       0.0980   0.0000
  sZn   HP   1       0.1960   0.0397
  sZn    I   1       0.3074   0.2005
  sZn   Cl   1       0.3181   0.1002
  sZn   Na   1       0.2644   0.0167
  sZn   IB   1       0.5434   0.1002
  sZn   MG   1       0.1686   0.2999
  sZn    N   1       0.2605   0.1307
  sZn   NA   1       0.2605   0.1307
  sZn   NB   1       0.2605   0.1307
  sZn   NC   1       0.2605   0.1307
  sZn   N2   1       0.2605   0.1307
  sZn   N3   1       0.2605   0.1307
  sZn   N*   1       0.2605   0.1307
  sZn    O   1       0.2460   0.1453
  sZn   OB   1       0.2460   0.1453
  sZn   OW   1       0.2555   0.1236
  sZn   OH   1       0.2513   0.1454
  sZn   O3   1       0.2513   0.1454
  sZn   OS   1       0.2480   0.1307
  sZn   O2   1       0.2460   0.1453
  sZn    P   1       0.2851   0.1418
  sZn    S   1       0.2762   0.1585
  sZn   SH   1       0.2762   0.1585
  sZn   CU   1       0.2680   0.0930
  sZn   FE   1       0.0980   0.0000
  sZn    K   1       0.3348   0.0057
  sZn   Rb   1       0.3613   0.0041
  sZn   Li   1       0.1993   0.0429
  sZn   Zn   1       0.1960   0.0354
  sZn HW_tip4pew   1       0.0980   0.0000
  sZn OW_tip4pew   1       0.2562   0.1279
  sZn HW_tip4p   1       0.0980   0.0000
  sZn OW_tip4p   1       0.2557   0.1248
  sZn HW_tip5p   1       0.0980   0.0000
  sZn OW_tip5p   1       0.2540   0.1268
  sZn HW_tip4pd   1       0.0980   0.0000
  sZn OW_tip4pd   1       0.2562   0.1549
  sZn   MW   1       0.0980   0.0000
  sZn MCH3   1       0.0980   0.0000
  sZn MNH3   1       0.0980   0.0000
  sZn   c3   1       0.2680   0.1049
  sZn   hc   1       0.2305   0.0397
  sZn    c   1       0.2680   0.0930
  sZn    o   1       0.2460   0.1453
  sZn    n   1       0.2605   0.1307
  sZn   h1   1       0.2216   0.0397
  sZn   ca   1       0.2680   0.0930
  sZn   ha   1       0.2280   0.0388
  sZn   n3   1       0.2605   0.1307
  sZn   hx   1       0.1960   0.0397
  sZn   n4   1       0.2605   0.1307
  sZn   hn   1       0.1515   0.0397
sHW_tip4pew   Br   1       0.0000   0.0000
sHW_tip4pew    C   1       0.1700   0.0000
sHW_tip4pew   C6   1       0.1700   0.0000
sHW_tip4pew   C5   1       0.1700   0.0000
sHW_tip4pew   CA   1       0.1700   0.0000
sHW_tip4pew   CB   1       0.1700   0.0000
sHW_tip4pew   CC   1       0.1700   0.0000
sHW_tip4pew   CK   1       0.1700   0.0000
sHW_tip4pew   CM   1       0.1700   0.0000
sHW_tip4pew   CN   1       0.1700   0.0000
sHW_tip4pew   CQ   1       0.1700   0.0000
sHW_tip4pew   CR   1       0.1700   0.0000
sHW_tip4pew   CT   1       0.1700   0.0000
sHW_tip4pew   C1   1       0.1700   0.0000
sHW_tip4pew   C3   1       0.1700   0.0000
sHW_tip4pew   C4   1       0.1700   0.0000
sHW_tip4pew   C7   1       0.1700   0.0000
sHW_tip4pew   C8   1       0.1700   0.0000
sHW_tip4pew   C9   1       0.1700   0.0000
sHW_tip4pew   CV   1       0.1700   0.0000
sHW_tip4pew   CW   1       0.1700   0.0000
sHW_tip4pew   C*   1       0.1700   0.0000
sHW_tip4pew   C0   1       0.1526   0.0000
sHW_tip4pew    F   1       0.1559   0.0000
sHW_tip4pew    H   1       0.0535   0.0000
sHW_tip4pew   HB   1       0.0535   0.0000
sHW_tip4pew   HC   1       0.1325   0.0000
sHW_tip4pew   H1   1       0.1236   0.0000
sHW_tip4pew   H2   1       0.1147   0.0000
sHW_tip4pew   H3   1       0.1057   0.0000
sHW_tip4pew   HA   1       0.1300   0.0000
sHW_tip4pew   H4   1       0.1255   0.0000
sHW_tip4pew   H5   1       0.1211   0.0000
sHW_tip4pew   HO   1       0.0000   0.0000
sHW_tip4pew   HS   1       0.0535   0.0000
sHW_tip4pew   HW   1       0.0000   0.0000
sHW_tip4pew   HP   1       0.0980   0.0000
sHW_tip4pew    I   1       0.2094   0.0000
sHW_tip4pew   Cl   1       0.2201   0.0000
sHW_tip4pew   Na   1       0.1664   0.0000
sHW_tip4pew   IB   1       0.4454   0.0000
sHW_tip4pew   MG   1       0.0706   0.0000
sHW_tip4pew    N   1       0.1625   0.0000
sHW_tip4pew   NA   1       0.1625   0.0000
sHW_tip4pew   NB   1       0.1625   0.0000
sHW_tip4pew   NC   1       0.1625   0.0000
sHW_tip4pew   N2   1       0.1625   0.0000
sHW_tip4pew   N3   1       0.1625   0.0000
sHW_tip4pew   N*   1       0.1625   0.0000
sHW_tip4pew    O   1       0.1480   0.0000
sHW_tip4pew   OB   1       0.1480   0.0000
sHW_tip4pew   OW   1       0.1575   0.0000
sHW_tip4pew   OH   1       0.1533   0.0000
sHW_tip4pew   O3   1       0.1533   0.0000
sHW_tip4pew   OS   1       0.1500   0.0000
sHW_tip4pew   O2   1       0.1480   0.0000
sHW_tip4pew    P   1       0.1871   0.0000
sHW_tip4pew    S   1       0.1782   0.0000
sHW_tip4pew   SH   1       0.1782   0.0000
sHW_tip4pew   CU   1       0.1700   0.0000
sHW_tip4pew   FE   1       0.0000   0.0000
sHW_tip4pew    K   1       0.2368   0.0000
sHW_tip4pew   Rb   1       0.2633   0.0000
sHW_tip4pew   Li   1       0.1013   0.0000
sHW_tip4pew   Zn   1       0.0980   0.0000
sHW_tip4pew HW_tip4pew   1       0.0000   0.0000
sHW_tip4pew OW_tip4pew   1       0.1582   0.0000
sHW_tip4pew HW_tip4p   1       0.0000   0.0000
sHW_tip4pew OW_tip4p   1       0.1577   0.0000
sHW_tip4pew HW_tip5p   1       0.0000   0.0000
sHW_tip4pew OW_tip5p   1       0.1560   0.0000
sHW_tip4pew HW_tip4pd   1       0.0000   0.0000
sHW_tip4pew OW_tip4pd   1       0.1583   0.0000
sHW_tip4pew   MW   1       0.0000   0.0000
sHW_tip4pew MCH3   1       0.0000   0.0000
sHW_tip4pew MNH3   1       0.0000   0.0000
sHW_tip4pew   c3   1       0.1700   0.0000
sHW_tip4pew   hc   1       0.1325   0.0000
sHW_tip4pew    c   1       0.1700   0.0000
sHW_tip4pew    o   1       0.1480   0.0000
sHW_tip4pew    n   1       0.1625   0.0000
sHW_tip4pew   h1   1       0.1236   0.0000
sHW_tip4pew   ca   1       0.1700   0.0000
sHW_tip4pew   ha   1       0.1300   0.0000
sHW_tip4pew   n3   1       0.1625   0.0000
sHW_tip4pew   hx   1       0.0980   0.0000
sHW_tip4pew   n4   1       0.1625   0.0000
sHW_tip4pew   hn   1       0.0535   0.0000
sOW_tip4pew   Br   1       0.1582   0.0000
sOW_tip4pew    C   1       0.3282   0.3355
sOW_tip4pew   C6   1       0.3282   0.3355
sOW_tip4pew   C5   1       0.3282   0.3355
sOW_tip4pew   CA   1       0.3282   0.3355
sOW_tip4pew   CB   1       0.3282   0.3355
sOW_tip4pew   CC   1       0.3282   0.3355
sOW_tip4pew   CK   1       0.3282   0.3355
sOW_tip4pew   CM   1       0.3282   0.3355
sOW_tip4pew   CN   1       0.3282   0.3355
sOW_tip4pew   CQ   1       0.3282   0.3355
sOW_tip4pew   CR   1       0.3282   0.3355
sOW_tip4pew   CT   1       0.3282   0.3784
sOW_tip4pew   C1   1       0.3282   0.3784
sOW_tip4pew   C3   1       0.3282   0.3784
sOW_tip4pew   C4   1       0.3282   0.3784
sOW_tip4pew   C7   1       0.3282   0.3784
sOW_tip4pew   C8   1       0.3282   0.3784
sOW_tip4pew   C9   1       0.3282   0.3784
sOW_tip4pew   CV   1       0.3282   0.3355
sOW_tip4pew   CW   1       0.3282   0.3355
sOW_tip4pew   C*   1       0.3282   0.3355
sOW_tip4pew   C0   1       0.3108   0.7756
sOW_tip4pew    F   1       0.3141   0.2825
sOW_tip4pew    H   1       0.2117   0.1433
sOW_tip4pew   HB   1       0.2117   0.1433
sOW_tip4pew   HC   1       0.2907   0.1433
sOW_tip4pew   H1   1       0.2818   0.1433
sOW_tip4pew   H2   1       0.2729   0.1433
sOW_tip4pew   H3   1       0.2640   0.1433
sOW_tip4pew   HA   1       0.2882   0.1401
sOW_tip4pew   H4   1       0.2837   0.1401
sOW_tip4pew   H5   1       0.2793   0.1401
sOW_tip4pew   HO   1       0.1582   0.0000
sOW_tip4pew   HS   1       0.2117   0.1433
sOW_tip4pew   HW   1       0.1582   0.0000
sOW_tip4pew   HP   1       0.2562   0.1433
sOW_tip4pew    I   1       0.3676   0.7235
sOW_tip4pew   Cl   1       0.3783   0.3617
sOW_tip4pew   Na   1       0.3246   0.0602
sOW_tip4pew   IB   1       0.6037   0.3617
sOW_tip4pew   MG   1       0.2288   1.0820
sOW_tip4pew    N   1       0.3207   0.4716
sOW_tip4pew   NA   1       0.3207   0.4716
sOW_tip4pew   NB   1       0.3207   0.4716
sOW_tip4pew   NC   1       0.3207   0.4716
sOW_tip4pew   N2   1       0.3207   0.4716
sOW_tip4pew   N3   1       0.3207   0.4716
sOW_tip4pew   N*   1       0.3207   0.4716
sOW_tip4pew    O   1       0.3062   0.5242
sOW_tip4pew   OB   1       0.3062   0.5242
sOW_tip4pew   OW   1       0.3157   0.4461
sOW_tip4pew   OH   1       0.3115   0.5247
sOW_tip4pew   O3   1       0.3115   0.5247
sOW_tip4pew   OS   1       0.3082   0.4716
sOW_tip4pew   O2   1       0.3062   0.5242
sOW_tip4pew    P   1       0.3453   0.5116
sOW_tip4pew    S   1       0.3364   0.5719
sOW_tip4pew   SH   1       0.3364   0.5719
sOW_tip4pew   CU   1       0.3282   0.3355
sOW_tip4pew   FE   1       0.1582   0.0000
sOW_tip4pew    K   1       0.3950   0.0207
sOW_tip4pew   Rb   1       0.4216   0.0149
sOW_tip4pew   Li   1       0.2595   0.1547
sOW_tip4pew   Zn   1       0.2562   0.1279
sOW_tip4pew HW_tip4pew   1       0.1582   0.0000
sOW_tip4pew OW_tip4pew   1       0.3164   0.4615
sOW_tip4pew HW_tip4p   1       0.1582   0.0000
sOW_tip4pew OW_tip4p   1       0.3159   0.4504
sOW_tip4pew HW_tip5p   1       0.1582   0.0000
sOW_tip4pew OW_tip5p   1       0.3142   0.4576
sOW_tip4pew HW_tip4pd   1       0.1582   0.0000
sOW_tip4pew OW_tip4pd   1       0.3165   0.5589
sOW_tip4pew   MW   1       0.1582   0.0000
sOW_tip4pew MCH3   1       0.1582   0.0000
sOW_tip4pew MNH3   1       0.1582   0.0000
sOW_tip4pew   c3   1       0.3282   0.3784
sOW_tip4pew   hc   1       0.2907   0.1433
sOW_tip4pew    c   1       0.3282   0.3355
sOW_tip4pew    o   1       0.3062   0.5242
sOW_tip4pew    n   1       0.3207   0.4716
sOW_tip4pew   h1   1       0.2818   0.1433
sOW_tip4pew   ca   1       0.3282   0.3355
sOW_tip4pew   ha   1       0.2882   0.1401
sOW_tip4pew   n3   1       0.3207   0.4716
sOW_tip4pew   hx   1       0.2562   0.1433
sOW_tip4pew   n4   1       0.3207   0.4716
sOW_tip4pew   hn   1       0.2117   0.1433
sHW_tip4p   Br   1       0.0000   0.0000
sHW_tip4p    C   1       0.1700   0.0000
sHW_tip4p   C6   1       0.1700   0.0000
sHW_tip4p   C5   1       0.1700   0.0000
sHW_tip4p   CA   1       0.1700   0.0000
sHW_tip4p   CB   1       0.1700   0.0000
sHW_tip4p   CC   1       0.1700   0.0000
sHW_tip4p   CK   1       0.1700   0.0000
sHW_tip4p   CM   1       0.1700   0.0000
sHW_tip4p   CN   1       0.1700   0.0000
sHW_tip4p   CQ   1       0.1700   0.0000
sHW_tip4p   CR   1       0.1700   0.0000
sHW_tip4p   CT   1       0.1700   0.0000
sHW_tip4p   C1   1       0.1700   0.0000
sHW_tip4p   C3   1       0.1700   0.0000
sHW_tip4p   C4   1       0.1700   0.0000
sHW_tip4p   C7   1       0.1700   0.0000
sHW_tip4p   C8   1       0.1700   0.0000
sHW_tip4p   C9   1       0.1700   0.0000
sHW_tip4p   CV   1       0.1700   0.0000
sHW_tip4p   CW   1       0.1700   0.0000
sHW_tip4p   C*   1       0.1700   0.0000
sHW_tip4p   C0   1       0.1526   0.0000
sHW_tip4p    F   1       0.1559   0.0000
sHW_tip4p    H   1       0.0535   0.0000
sHW_tip4p   HB   1       0.0535   0.0000
sHW_tip4p   HC   1       0.1325   0.0000
sHW_tip4p   H1   1       0.1236   0.0000
sHW_tip4p   H2   1       0.1147   0.0000
sHW_tip4p   H3   1       0.1057   0.0000
sHW_tip4p   HA   1       0.1300   0.0000
sHW_tip4p   H4   1       0.1255   0.0000
sHW_tip4p   H5   1       0.1211   0.0000
sHW_tip4p   HO   1       0.0000   0.0000
sHW_tip4p   HS   1       0.0535   0.0000
sHW_tip4p   HW   1       0.0000   0.0000
sHW_tip4p   HP   1       0.0980   0.0000
sHW_tip4p    I   1       0.2094   0.0000
sHW_tip4p   Cl   1       0.2201   0.0000
sHW_tip4p   Na   1       0.1664   0.0000
sHW_tip4p   IB   1       0.4454   0.0000
sHW_tip4p   MG   1       0.0706   0.0000
sHW_tip4p    N   1       0.1625   0.0000
sHW_tip4p   NA   1       0.1625   0.0000
sHW_tip4p   NB   1       0.1625   0.0000
sHW_tip4p   NC   1       0.1625   0.0000
sHW_tip4p   N2   1       0.1625   0.0000
sHW_tip4p   N3   1       0.1625   0.0000
sHW_tip4p   N*   1       0.1625   0.0000
sHW_tip4p    O   1       0.1480   0.0000
sHW_tip4p   OB   1       0.1480   0.0000
sHW_tip4p   OW   1       0.1575   0.0000
sHW_tip4p   OH   1       0.1533   0.0000
sHW_tip4p   O3   1       0.1533   0.0000
sHW_tip4p   OS   1       0.1500   0.0000
sHW_tip4p   O2   1       0.1480   0.0000
sHW_tip4p    P   1       0.1871   0.0000
sHW_tip4p    S   1       0.1782   0.0000
sHW_tip4p   SH   1       0.1782   0.0000
sHW_tip4p   CU   1       0.1700   0.0000
sHW_tip4p   FE   1       0.0000   0.0000
sHW_tip4p    K   1       0.2368   0.0000
sHW_tip4p   Rb   1       0.2633   0.0000
sHW_tip4p   Li   1       0.1013   0.0000
sHW_tip4p   Zn   1       0.0980   0.0000
sHW_tip4p HW_tip4pew   1       0.0000   0.0000
sHW_tip4p OW_tip4pew   1       0.1582   0.0000
sHW_tip4p HW_tip4p   1       0.0000   0.0000
sHW_tip4p OW_tip4p   1       0.1577   0.0000
sHW_tip4p HW_tip5p   1       0.0000   0.0000
sHW_tip4p OW_tip5p   1       0.1560   0.0000
sHW_tip4p HW_tip4pd   1       0.0000   0.0000
sHW_tip4p OW_tip4pd   1       0.1583   0.0000
sHW_tip4p   MW   1       0.0000   0.0000
sHW_tip4p MCH3   1       0.0000   0.0000
sHW_tip4p MNH3   1       0.0000   0.0000
sHW_tip4p   c3   1       0.1700   0.0000
sHW_tip4p   hc   1       0.1325   0.0000
sHW_tip4p    c   1       0.1700   0.0000
sHW_tip4p    o   1       0.1480   0.0000
sHW_tip4p    n   1       0.1625   0.0000
sHW_tip4p   h1   1       0.1236   0.0000
sHW_tip4p   ca   1       0.1700   0.0000
sHW_tip4p   ha   1       0.1300   0.0000
sHW_tip4p   n3   1       0.1625   0.0000
sHW_tip4p   hx   1       0.0980   0.0000
sHW_tip4p   n4   1       0.1625   0.0000
sHW_tip4p   hn   1       0.0535   0.0000
sOW_tip4p   Br   1       0.1577   0.0000
sOW_tip4p    C   1       0.3277   0.3274
sOW_tip4p   C6   1       0.3277   0.3274
sOW_tip4p   C5   1       0.3277   0.3274
sOW_tip4p   CA   1       0.3277   0.3274
sOW_tip4p   CB   1       0.3277   0.3274
sOW_tip4p   CC   1       0.3277   0.3274
sOW_tip4p   CK   1       0.3277   0.3274
sOW_tip4p   CM   1       0.3277   0.3274
sOW_tip4p   CN   1       0.3277   0.3274
sOW_tip4p   CQ   1       0.3277   0.3274
sOW_tip4p   CR   1       0.3277   0.3274
sOW_tip4p   CT   1       0.3277   0.3692
sOW_tip4p   C1   1       0.3277   0.3692
sOW_tip4p   C3   1       0.3277   0.3692
sOW_tip4p   C4   1       0.3277   0.3692
sOW_tip4p   C7   1       0.3277   0.3692
sOW_tip4p   C8   1       0.3277   0.3692
sOW_tip4p   C9   1       0.3277   0.3692
sOW_tip4p   CV   1       0.3277   0.3274
sOW_tip4p   CW   1       0.3277   0.3274
sOW_tip4p   C*   1       0.3277   0.3274
sOW_tip4p   C0   1       0.3103   0.7570
sOW_tip4p    F   1       0.3136   0.2757
sOW_tip4p    H   1       0.2111   0.1399
sOW_tip4p   HB   1       0.2111   0.1399
sOW_tip4p   HC   1       0.2902   0.1399
sOW_tip4p   H1   1       0.2812   0.1399
sOW_tip4p   H2   1       0.2723   0.1399
sOW_tip4p   H3   1       0.2634   0.1399
sOW_tip4p   HA   1       0.2877   0.1367
sOW_tip4p   H4   1       0.2832   0.1367
sOW_tip4p   H5   1       0.2788   0.1367
sOW_tip4p   HO   1       0.1577   0.0000
sOW_tip4p   HS   1       0.2111   0.1399
sOW_tip4p   HW   1       0.1577   0.0000
sOW_tip4p   HP   1       0.2557   0.1399
sOW_tip4p    I   1       0.3670   0.7060
sOW_tip4p   Cl   1       0.3777   0.3530
sOW_tip4p   Na   1       0.3241   0.0588
sOW_tip4p   IB   1       0.6031   0.3530
sOW_tip4p   MG   1       0.2283   1.0559
sOW_tip4p    N   1       0.3202   0.4603
sOW_tip4p   NA   1       0.3202   0.4603
sOW_tip4p   NB   1       0.3202   0.4603
sOW_tip4p   NC   1       0.3202   0.4603
sOW_tip4p   N2   1       0.3202   0.4603
sOW_tip4p   N3   1       0.3202   0.4603
sOW_tip4p   N*   1       0.3202   0.4603
sOW_tip4p    O   1       0.3057   0.5116
sOW_tip4p   OB   1       0.3057   0.5116
sOW_tip4p   OW   1       0.3152   0.4354
sOW_tip4p   OH   1       0.3110   0.5121
sOW_tip4p   O3   1       0.3110   0.5121
sOW_tip4p   OS   1       0.3077   0.4603
sOW_tip4p   O2   1       0.3057   0.5116
sOW_tip4p    P   1       0.3448   0.4992
sOW_tip4p    S   1       0.3359   0.5582
sOW_tip4p   SH   1       0.3359   0.5582
sOW_tip4p   CU   1       0.3277   0.3274
sOW_tip4p   FE   1       0.1577   0.0000
sOW_tip4p    K   1       0.3945   0.0202
sOW_tip4p   Rb   1       0.4210   0.0146
sOW_tip4p   Li   1       0.2590   0.1510
sOW_tip4p   Zn   1       0.2557   0.1248
sOW_tip4p HW_tip4pew   1       0.1577   0.0000
sOW_tip4p OW_tip4pew   1       0.3159   0.4504
sOW_tip4p HW_tip4p   1       0.1577   0.0000
sOW_tip4p OW_tip4p   1       0.3154   0.4395
sOW_tip4p HW_tip5p   1       0.1577   0.0000
sOW_tip4p OW_tip5p   1       0.3137   0.4465
sOW_tip4p HW_tip4pd   1       0.1577   0.0000
sOW_tip4p OW_tip4pd   1       0.3159   0.5455
sOW_tip4p   MW   1       0.1577   0.0000
sOW_tip4p MCH3   1       0.1577   0.0000
sOW_tip4p MNH3   1       0.1577   0.0000
sOW_tip4p   c3   1       0.3277   0.3692
sOW_tip4p   hc   1       0.2902   0.1399
sOW_tip4p    c   1       0.3277   0.3274
sOW_tip4p    o   1       0.3057   0.5116
sOW_tip4p    n   1       0.3202   0.4603
sOW_tip4p   h1   1       0.2812   0.1399
sOW_tip4p   ca   1       0.3277   0.3274
sOW_tip4p   ha   1       0.2877   0.1367
sOW_tip4p   n3   1       0.3202   0.4603
sOW_tip4p   hx   1       0.2557   0.1399
sOW_tip4p   n4   1       0.3202   0.4603
sOW_tip4p   hn   1       0.2111   0.1399
sHW_tip5p   Br   1       0.0000   0.0000
sHW_tip5p    C   1       0.1700   0.0000
sHW_tip5p   C6   1       0.1700   0.0000
sHW_tip5p   C5   1       0.1700   0.0000
sHW_tip5p   CA   1       0.1700   0.0000
sHW_tip5p   CB   1       0.1700   0.0000
sHW_tip5p   CC   1       0.1700   0.0000
sHW_tip5p   CK   1       0.1700   0.0000
sHW_tip5p   CM   1       0.1700   0.0000
sHW_tip5p   CN   1       0.1700   0.0000
sHW_tip5p   CQ   1       0.1700   0.0000
sHW_tip5p   CR   1       0.1700   0.0000
sHW_tip5p   CT   1       0.1700   0.0000
sHW_tip5p   C1   1       0.1700   0.0000
sHW_tip5p   C3   1       0.1700   0.0000
sHW_tip5p   C4   1       0.1700   0.0000
sHW_tip5p   C7   1       0.1700   0.0000
sHW_tip5p   C8   1       0.1700   0.0000
sHW_tip5p   C9   1       0.1700   0.0000
sHW_tip5p   CV   1       0.1700   0.0000
sHW_tip5p   CW   1       0.1700   0.0000
sHW_tip5p   C*   1       0.1700   0.0000
sHW_tip5p   C0   1       0.1526   0.0000
sHW_tip5p    F   1       0.1559   0.0000
sHW_tip5p    H   1       0.0535   0.0000
sHW_tip5p   HB   1       0.0535   0.0000
sHW_tip5p   HC   1       0.1325   0.0000
sHW_tip5p   H1   1       0.1236   0.0000
sHW_tip5p   H2   1       0.1147   0.0000
sHW_tip5p   H3   1       0.1057   0.0000
sHW_tip5p   HA   1       0.1300   0.0000
sHW_tip5p   H4   1       0.1255   0.0000
sHW_tip5p   H5   1       0.1211   0.0000
sHW_tip5p   HO   1       0.0000   0.0000
sHW_tip5p   HS   1       0.0535   0.0000
sHW_tip5p   HW   1       0.0000   0.0000
sHW_tip5p   HP   1       0.0980   0.0000
sHW_tip5p    I   1       0.2094   0.0000
sHW_tip5p   Cl   1       0.2201   0.0000
sHW_tip5p   Na   1       0.1664   0.0000
sHW_tip5p   IB   1       0.4454   0.0000
sHW_tip5p   MG   1       0.0706   0.0000
sHW_tip5p    N   1       0.1625   0.0000
sHW_tip5p   NA   1       0.1625   0.0000
sHW_tip5p   NB   1       0.1625   0.0000
sHW_tip5p   NC   1       0.1625   0.0000
sHW_tip5p   N2   1       0.1625   0.0000
sHW_tip5p   N3   1       0.1625   0.0000
sHW_tip5p   N*   1       0.1625   0.0000
sHW_tip5p    O   1       0.1480   0.0000
sHW_tip5p   OB   1       0.1480   0.0000
sHW_tip5p   OW   1       0.1575   0.0000
sHW_tip5p   OH   1       0.1533   0.0000
sHW_tip5p   O3   1       0.1533   0.0000
sHW_tip5p   OS   1       0.1500   0.0000
sHW_tip5p   O2   1       0.1480   0.0000
sHW_tip5p    P   1       0.1871   0.0000
sHW_tip5p    S   1       0.1782   0.0000
sHW_tip5p   SH   1       0.1782   0.0000
sHW_tip5p   CU   1       0.1700   0.0000
sHW_tip5p   FE   1       0.0000   0.0000
sHW_tip5p    K   1       0.2368   0.0000
sHW_tip5p   Rb   1       0.2633   0.0000
sHW_tip5p   Li   1       0.1013   0.0000
sHW_tip5p   Zn   1       0.0980   0.0000
sHW_tip5p HW_tip4pew   1       0.0000   0.0000
sHW_tip5p OW_tip4pew   1       0.1582   0.0000
sHW_tip5p HW_tip4p   1       0.0000   0.0000
sHW_tip5p OW_tip4p   1       0.1577   0.0000
sHW_tip5p HW_tip5p   1       0.0000   0.0000
sHW_tip5p OW_tip5p   1       0.1560   0.0000
sHW_tip5p HW_tip4pd   1       0.0000   0.0000
sHW_tip5p OW_tip4pd   1       0.1583   0.0000
sHW_tip5p   MW   1       0.0000   0.0000
sHW_tip5p MCH3   1       0.0000   0.0000
sHW_tip5p MNH3   1       0.0000   0.0000
sHW_tip5p   c3   1       0.1700   0.0000
sHW_tip5p   hc   1       0.1325   0.0000
sHW_tip5p    c   1       0.1700   0.0000
sHW_tip5p    o   1       0.1480   0.0000
sHW_tip5p    n   1       0.1625   0.0000
sHW_tip5p   h1   1       0.1236   0.0000
sHW_tip5p   ca   1       0.1700   0.0000
sHW_tip5p   ha   1       0.1300   0.0000
sHW_tip5p   n3   1       0.1625   0.0000
sHW_tip5p   hx   1       0.0980   0.0000
sHW_tip5p   n4   1       0.1625   0.0000
sHW_tip5p   hn   1       0.0535   0.0000
sOW_tip5p   Br   1       0.1560   0.0000
sOW_tip5p    C   1       0.3260   0.3326
sOW_tip5p   C6   1       0.3260   0.3326
sOW_tip5p   C5   1       0.3260   0.3326
sOW_tip5p   CA   1       0.3260   0.3326
sOW_tip5p   CB   1       0.3260   0.3326
sOW_tip5p   CC   1       0.3260   0.3326
sOW_tip5p   CK   1       0.3260   0.3326
sOW_tip5p   CM   1       0.3260   0.3326
sOW_tip5p   CN   1       0.3260   0.3326
sOW_tip5p   CQ   1       0.3260   0.3326
sOW_tip5p   CR   1       0.3260   0.3326
sOW_tip5p   CT   1       0.3260   0.3751
sOW_tip5p   C1   1       0.3260   0.3751
sOW_tip5p   C3   1       0.3260   0.3751
sOW_tip5p   C4   1       0.3260   0.3751
sOW_tip5p   C7   1       0.3260   0.3751
sOW_tip5p   C8   1       0.3260   0.3751
sOW_tip5p   C9   1       0.3260   0.3751
sOW_tip5p   CV   1       0.3260   0.3326
sOW_tip5p   CW   1       0.3260   0.3326
sOW_tip5p   C*   1       0.3260   0.3326
sOW_tip5p   C0   1       0.3086   0.7691
sOW_tip5p    F   1       0.3119   0.2801
sOW_tip5p    H   1       0.2095   0.1421
sOW_tip5p   HB   1       0.2095   0.1421
sOW_tip5p   HC   1       0.2885   0.1421
sOW_tip5p   H1   1       0.2796   0.1421
sOW_tip5p   H2   1       0.2707   0.1421
sOW_tip5p   H3   1       0.2617   0.1421
sOW_tip5p   HA   1       0.2860   0.1389
sOW_tip5p   H4   1       0.2815   0.1389
sOW_tip5p   H5   1       0.2771   0.1389
sOW_tip5p   HO   1       0.1560   0.0000
sOW_tip5p   HS   1       0.2095   0.1421
sOW_tip5p   HW   1       0.1560   0.0000
sOW_tip5p   HP   1       0.2540   0.1421
sOW_tip5p    I   1       0.3654   0.7173
sOW_tip5p   Cl   1       0.3761   0.3587
sOW_tip5p   Na   1       0.3224   0.0597
sOW_tip5p   IB   1       0.6014   0.3587
sOW_tip5p   MG   1       0.2266   1.0728
sOW_tip5p    N   1       0.3185   0.4676
sOW_tip5p   NA   1       0.3185   0.4676
sOW_tip5p   NB   1       0.3185   0.4676
sOW_tip5p   NC   1       0.3185   0.4676
sOW_tip5p   N2   1       0.3185   0.4676
sOW_tip5p   N3   1       0.3185   0.4676
sOW_tip5p   N*   1       0.3185   0.4676
sOW_tip5p    O   1       0.3040   0.5197
sOW_tip5p   OB   1       0.3040   0.5197
sOW_tip5p   OW   1       0.3135   0.4423
sOW_tip5p   OH   1       0.3093   0.5202
sOW_tip5p   O3   1       0.3093   0.5202
sOW_tip5p   OS   1       0.3060   0.4676
sOW_tip5p   O2   1       0.3040   0.5197
sOW_tip5p    P   1       0.3431   0.5072
sOW_tip5p    S   1       0.3342   0.5671
sOW_tip5p   SH   1       0.3342   0.5671
sOW_tip5p   CU   1       0.3260   0.3326
sOW_tip5p   FE   1       0.1560   0.0000
sOW_tip5p    K   1       0.3928   0.0205
sOW_tip5p   Rb   1       0.4193   0.0148
sOW_tip5p   Li   1       0.2573   0.1534
sOW_tip5p   Zn   1       0.2540   0.1268
sOW_tip5p HW_tip4pew   1       0.1560   0.0000
sOW_tip5p OW_tip4pew   1       0.3142   0.4576
sOW_tip5p HW_tip4p   1       0.1560   0.0000
sOW_tip5p OW_tip4p   1       0.3137   0.4465
sOW_tip5p HW_tip5p   1       0.1560   0.0000
sOW_tip5p OW_tip5p   1       0.3120   0.4537
sOW_tip5p HW_tip4pd   1       0.1560   0.0000
sOW_tip5p OW_tip4pd   1       0.3142   0.5542
sOW_tip5p   MW   1       0.1560   0.0000
sOW_tip5p MCH3   1       0.1560   0.0000
sOW_tip5p MNH3   1       0.1560   0.0000
sOW_tip5p   c3   1       0.3260   0.3751
sOW_tip5p   hc   1       0.2885   0.1421
sOW_tip5p    c   1       0.3260   0.3326
sOW_tip5p    o   1       0.3040   0.5197
sOW_tip5p    n   1       0.3185   0.4676
sOW_tip5p   h1   1       0.2796   0.1421
sOW_tip5p   ca   1       0.3260   0.3326
sOW_tip5p   ha   1       0.2860   0.1389
sOW_tip5p   n3   1       0.3185   0.4676
sOW_tip5p   hx   1       0.2540   0.1421
sOW_tip5p   n4   1       0.3185   0.4676
sOW_tip5p   hn   1       0.2095   0.1421
sHW_tip4pd   Br   1       0.0000   0.0000
sHW_tip4pd    C   1       0.1700   0.0000
sHW_tip4pd   C6   1       0.1700   0.0000
sHW_tip4pd   C5   1       0.1700   0.0000
sHW_tip4pd   CA   1       0.1700   0.0000
sHW_tip4pd   CB   1       0.1700   0.0000
sHW_tip4pd   CC   1       0.1700   0.0000
sHW_tip4pd   CK   1       0.1700   0.0000
sHW_tip4pd   CM   1       0.1700   0.0000
sHW_tip4pd   CN   1       0.1700   0.0000
sHW_tip4pd   CQ   1       0.1700   0.0000
sHW_tip4pd   CR   1       0.1700   0.0000
sHW_tip4pd   CT   1       0.1700   0.0000
sHW_tip4pd   C1   1       0.1700   0.0000
sHW_tip4pd   C3   1       0.1700   0.0000
sHW_tip4pd   C4   1       0.1700   0.0000
sHW_tip4pd   C7   1       0.1700   0.0000
sHW_tip4pd   C8   1       0.1700   0.0000
sHW_tip4pd   C9   1       0.1700   0.0000
sHW_tip4pd   CV   1       0.1700   0.0000
sHW_tip4pd   CW   1       0.1700   0.0000
sHW_tip4pd   C*   1       0.1700   0.0000
sHW_tip4pd   C0   1       0.1526   0.0000
sHW_tip4pd    F   1       0.1559   0.0000
sHW_tip4pd    H   1       0.0535   0.0000
sHW_tip4pd   HB   1       0.0535   0.0000
sHW_tip4pd   HC   1       0.1325   0.0000
sHW_tip4pd   H1   1       0.1236   0.0000
sHW_tip4pd   H2   1       0.1147   0.0000
sHW_tip4pd   H3   1       0.1057   0.0000
sHW_tip4pd   HA   1       0.1300   0.0000
sHW_tip4pd   H4   1       0.1255   0.0000
sHW_tip4pd   H5   1       0.1211   0.0000
sHW_tip4pd   HO   1       0.0000   0.0000
sHW_tip4pd   HS   1       0.0535   0.0000
sHW_tip4pd   HW   1       0.0000   0.0000
sHW_tip4pd   HP   1       0.0980   0.0000
sHW_tip4pd    I   1       0.2094   0.0000
sHW_tip4pd   Cl   1       0.2201   0.0000
sHW_tip4pd   Na   1       0.1664   0.0000
sHW_tip4pd   IB   1       0.4454   0.0000
sHW_tip4pd   MG   1       0.0706   0.0000
sHW_tip4pd    N   1       0.1625   0.0000
sHW_tip4pd   NA   1       0.1625   0.0000
sHW_tip4pd   NB   1       0.1625   0.0000
sHW_tip4pd   NC   1       0.1625   0.0000
sHW_tip4pd   N2   1       0.1625   0.0000
sHW_tip4pd   N3   1       0.1625   0.0000
sHW_tip4pd   N*   1       0.1625   0.0000
sHW_tip4pd    O   1       0.1480   0.0000
sHW_tip4pd   OB   1       0.1480   0.0000
sHW_tip4pd   OW   1       0.1575   0.0000
sHW_tip4pd   OH   1       0.1533   0.0000
sHW_tip4pd   O3   1       0.1533   0.0000
sHW_tip4pd   OS   1       0.1500   0.0000
sHW_tip4pd   O2   1       0.1480   0.0000
sHW_tip4pd    P   1       0.1871   0.0000
sHW_tip4pd    S   1       0.1782   0.0000
sHW_tip4pd   SH   1       0.1782   0.0000
sHW_tip4pd   CU   1       0.1700   0.0000
sHW_tip4pd   FE   1       0.0000   0.0000
sHW_tip4pd    K   1       0.2368   0.0000
sHW_tip4pd   Rb   1       0.2633   0.0000
sHW_tip4pd   Li   1       0.1013   0.0000
sHW_tip4pd   Zn   1       0.0980   0.0000
sHW_tip4pd HW_tip4pew   1       0.0000   0.0000
sHW_tip4pd OW_tip4pew   1       0.1582   0.0000
sHW_tip4pd HW_tip4p   1       0.0000   0.0000
sHW_tip4pd OW_tip4p   1       0.1577   0.0000
sHW_tip4pd HW_tip5p   1       0.0000   0.0000
sHW_tip4pd OW_tip5p   1       0.1560   0.0000
sHW_tip4pd HW_tip4pd   1       0.0000   0.0000
sHW_tip4pd OW_tip4pd   1       0.1583   0.0000
sHW_tip4pd   MW   1       0.0000   0.0000
sHW_tip4pd MCH3   1       0.0000   0.0000
sHW_tip4pd MNH3   1       0.0000   0.0000
sHW_tip4pd   c3   1       0.1700   0.0000
sHW_tip4pd   hc   1       0.1325   0.0000
sHW_tip4pd    c   1       0.1700   0.0000
sHW_tip4pd    o   1       0.1480   0.0000
sHW_tip4pd    n   1       0.1625   0.0000
sHW_tip4pd   h1   1       0.1236   0.0000
sHW_tip4pd   ca   1       0.1700   0.0000
sHW_tip4pd   ha   1       0.1300   0.0000
sHW_tip4pd   n3   1       0.1625   0.0000
sHW_tip4pd   hx   1       0.0980   0.0000
sHW_tip4pd   n4   1       0.1625   0.0000
sHW_tip4pd   hn   1       0.0535   0.0000
sOW_tip4pd   Br   1       0.1583   0.0000
sOW_tip4pd    C   1       0.3282   0.4063
sOW_tip4pd   C6   1       0.3282   0.4063
sOW_tip4pd   C5   1       0.3282   0.4063
sOW_tip4pd   CA   1       0.3282   0.4063
sOW_tip4pd   CB   1       0.3282   0.4063
sOW_tip4pd   CC   1       0.3282   0.4063
sOW_tip4pd   CK   1       0.3282   0.4063
sOW_tip4pd   CM   1       0.3282   0.4063
sOW_tip4pd   CN   1       0.3282   0.4063
sOW_tip4pd   CQ   1       0.3282   0.4063
sOW_tip4pd   CR   1       0.3282   0.4063
sOW_tip4pd   CT   1       0.3282   0.4583
sOW_tip4pd   C1   1       0.3282   0.4583
sOW_tip4pd   C3   1       0.3282   0.4583
sOW_tip4pd   C4   1       0.3282   0.4583
sOW_tip4pd   C7   1       0.3282   0.4583
sOW_tip4pd   C8   1       0.3282   0.4583
sOW_tip4pd   C9   1       0.3282   0.4583
sOW_tip4pd   CV   1       0.3282   0.4063
sOW_tip4pd   CW   1       0.3282   0.4063
sOW_tip4pd   C*   1       0.3282   0.4063
sOW_tip4pd   C0   1       0.3109   0.9395
sOW_tip4pd    F   1       0.3142   0.3422
sOW_tip4pd    H   1       0.2117   0.1736
sOW_tip4pd   HB   1       0.2117   0.1736
sOW_tip4pd   HC   1       0.2907   0.1736
sOW_tip4pd   H1   1       0.2818   0.1736
sOW_tip4pd   H2   1       0.2729   0.1736
sOW_tip4pd   H3   1       0.2640   0.1736
sOW_tip4pd   HA   1       0.2882   0.1697
sOW_tip4pd   H4   1       0.2838   0.1697
sOW_tip4pd   H5   1       0.2793   0.1697
sOW_tip4pd   HO   1       0.1583   0.0000
sOW_tip4pd   HS   1       0.2117   0.1736
sOW_tip4pd   HW   1       0.1583   0.0000
sOW_tip4pd   HP   1       0.2562   0.1736
sOW_tip4pd    I   1       0.3676   0.8763
sOW_tip4pd   Cl   1       0.3783   0.4381
sOW_tip4pd   Na   1       0.3247   0.0729
sOW_tip4pd   IB   1       0.6037   0.4381
sOW_tip4pd   MG   1       0.2289   1.3105
sOW_tip4pd    N   1       0.3207   0.5713
sOW_tip4pd   NA   1       0.3207   0.5713
sOW_tip4pd   NB   1       0.3207   0.5713
sOW_tip4pd   NC   1       0.3207   0.5713
sOW_tip4pd   N2   1       0.3207   0.5713
sOW_tip4pd   N3   1       0.3207   0.5713
sOW_tip4pd   N*   1       0.3207   0.5713
sOW_tip4pd    O   1       0.3062   0.6349
sOW_tip4pd   OB   1       0.3062   0.6349
sOW_tip4pd   OW   1       0.3158   0.5403
sOW_tip4pd   OH   1       0.3116   0.6355
sOW_tip4pd   O3   1       0.3116   0.6355
sOW_tip4pd   OS   1       0.3083   0.5713
sOW_tip4pd   O2   1       0.3062   0.6349
sOW_tip4pd    P   1       0.3453   0.6196
sOW_tip4pd    S   1       0.3364   0.6928
sOW_tip4pd   SH   1       0.3364   0.6928
sOW_tip4pd   CU   1       0.3282   0.4063
sOW_tip4pd   FE   1       0.1583   0.0000
sOW_tip4pd    K   1       0.3951   0.0251
sOW_tip4pd   Rb   1       0.4216   0.0181
sOW_tip4pd   Li   1       0.2595   0.1874
sOW_tip4pd   Zn   1       0.2562   0.1549
sOW_tip4pd HW_tip4pew   1       0.1583   0.0000
sOW_tip4pd OW_tip4pew   1       0.3165   0.5589
sOW_tip4pd HW_tip4p   1       0.1583   0.0000
sOW_tip4pd OW_tip4p   1       0.3159   0.5455
sOW_tip4pd HW_tip5p   1       0.1583   0.0000
sOW_tip4pd OW_tip5p   1       0.3142   0.5542
sOW_tip4pd HW_tip4pd   1       0.1583   0.0000
sOW_tip4pd OW_tip4pd   1       0.3165   0.6770
sOW_tip4pd   MW   1       0.1583   0.0000
sOW_tip4pd MCH3   1       0.1583   0.0000
sOW_tip4pd MNH3   1       0.1583   0.0000
sOW_tip4pd   c3   1       0.3282   0.4583
sOW_tip4pd   hc   1       0.2907   0.1736
sOW_tip4pd    c   1       0.3282   0.4063
sOW_tip4pd    o   1       0.3062   0.6349
sOW_tip4pd    n   1       0.3207   0.5713
sOW_tip4pd   h1   1       0.2818   0.1736
sOW_tip4pd   ca   1       0.3282   0.4063
sOW_tip4pd   ha   1       0.2882   0.1697
sOW_tip4pd   n3   1       0.3207   0.5713
sOW_tip4pd   hx   1       0.2562   0.1736
sOW_tip4pd   n4   1       0.3207   0.5713
sOW_tip4pd   hn   1       0.2117   0.1736
  sMW   Br   1       0.0000   0.0000
  sMW    C   1       0.1700   0.0000
  sMW   C6   1       0.1700   0.0000
  sMW   C5   1       0.1700   0.0000
  sMW   CA   1       0.1700   0.0000
  sMW   CB   1       0.1700   0.0000
  sMW   CC   1       0.1700   0.0000
  sMW   CK   1       0.1700   0.0000
  sMW   CM   1       0.1700   0.0000
  sMW   CN   1       0.1700   0.0000
  sMW   CQ   1       0.1700   0.0000
  sMW   CR   1       0.1700   0.0000
  sMW   CT   1       0.1700   0.0000
  sMW   C1   1       0.1700   0.0000
  sMW   C3   1       0.1700   0.0000
  sMW   C4   1       0.1700   0.0000
  sMW   C7   1       0.1700   0.0000
  sMW   C8   1       0.1700   0.0000
  sMW   C9   1       0.1700   0.0000
  sMW   CV   1       0.1700   0.0000
  sMW   CW   1       0.1700   0.0000
  sMW   C*   1       0.1700   0.0000
  sMW   C0   1       0.1526   0.0000
  sMW    F   1       0.1559   0.0000
  sMW    H   1       0.0535   0.0000
  sMW   HB   1       0.0535   0.0000
  sMW   HC   1       0.1325   0.0000
  sMW   H1   1       0.1236   0.0000
  sMW   H2   1       0.1147   0.0000
  sMW   H3   1       0.1057   0.0000
  sMW   HA   1       0.1300   0.0000
  sMW   H4   1       0.1255   0.0000
  sMW   H5   1       0.1211   0.0000
  sMW   HO   1       0.0000   0.0000
  sMW   HS   1       0.0535   0.0000
  sMW   HW   1       0.0000   0.0000
  sMW   HP   1       0.0980   0.0000
  sMW    I   1       0.2094   0.0000
  sMW   Cl   1       0.2201   0.0000
  sMW   Na   1       0.1664   0.0000
  sMW   IB   1       0.4454   0.0000
  sMW   MG   1       0.0706   0.0000
  sMW    N   1       0.1625   0.0000
  sMW   NA   1       0.1625   0.0000
  sMW   NB   1       0.1625   0.0000
  sMW   NC   1       0.1625   0.0000
  sMW   N2   1       0.1625   0.0000
  sMW   N3   1       0.1625   0.0000
  sMW   N*   1       0.1625   0.0000
  sMW    O   1       0.1480   0.0000
  sMW   OB   1       0.1480   0.0000
  sMW   OW   1       0.1575   0.0000
  sMW   OH   1       0.1533   0.0000
  sMW   O3   1       0.1533   0.0000
  sMW   OS   1       0.1500   0.0000
  sMW   O2   1       0.1480   0.0000
  sMW    P   1       0.1871   0.0000
  sMW    S   1       0.1782   0.0000
  sMW   SH   1       0.1782   0.0000
  sMW   CU   1       0.1700   0.0000
  sMW   FE   1       0.0000   0.0000
  sMW    K   1       0.2368   0.0000
  sMW   Rb   1       0.2633   0.0000
  sMW   Li   1       0.1013   0.0000
  sMW   Zn   1       0.0980   0.0000
  sMW HW_tip4pew   1       0.0000   0.0000
  sMW OW_tip4pew   1       0.1582   0.0000
  sMW HW_tip4p   1       0.0000   0.0000
  sMW OW_tip4p   1       0.1577   0.0000
  sMW HW_tip5p   1       0.0000   0.0000
  sMW OW_tip5p   1       0.1560   0.0000
  sMW HW_tip4pd   1       0.0000   0.0000
  sMW OW_tip4pd   1       0.1583   0.0000
  sMW   MW   1       0.0000   0.0000
  sMW MCH3   1       0.0000   0.0000
  sMW MNH3   1       0.0000   0.0000
  sMW   c3   1       0.1700   0.0000
  sMW   hc   1       0.1325   0.0000
  sMW    c   1       0.1700   0.0000
  sMW    o   1       0.1480   0.0000
  sMW    n   1       0.1625   0.0000
  sMW   h1   1       0.1236   0.0000
  sMW   ca   1       0.1700   0.0000
  sMW   ha   1       0.1300   0.0000
  sMW   n3   1       0.1625   0.0000
  sMW   hx   1       0.0980   0.0000
  sMW   n4   1       0.1625   0.0000
  sMW   hn   1       0.0535   0.0000
sMCH3   Br   1       0.0000   0.0000
sMCH3    C   1       0.1700   0.0000
sMCH3   C6   1       0.1700   0.0000
sMCH3   C5   1       0.1700   0.0000
sMCH3   CA   1       0.1700   0.0000
sMCH3   CB   1       0.1700   0.0000
sMCH3   CC   1       0.1700   0.0000
sMCH3   CK   1       0.1700   0.0000
sMCH3   CM   1       0.1700   0.0000
sMCH3   CN   1       0.1700   0.0000
sMCH3   CQ   1       0.1700   0.0000
sMCH3   CR   1       0.1700   0.0000
sMCH3   CT   1       0.1700   0.0000
sMCH3   C1   1       0.1700   0.0000
sMCH3   C3   1       0.1700   0.0000
sMCH3   C4   1       0.1700   0.0000
sMCH3   C7   1       0.1700   0.0000
sMCH3   C8   1       0.1700   0.0000
sMCH3   C9   1       0.1700   0.0000
sMCH3   CV   1       0.1700   0.0000
sMCH3   CW   1       0.1700   0.0000
sMCH3   C*   1       0.1700   0.0000
sMCH3   C0   1       0.1526   0.0000
sMCH3    F   1       0.1559   0.0000
sMCH3    H   1       0.0535   0.0000
sMCH3   HB   1       0.0535   0.0000
sMCH3   HC   1       0.1325   0.0000
sMCH3   H1   1       0.1236   0.0000
sMCH3   H2   1       0.1147   0.0000
sMCH3   H3   1       0.1057   0.0000
sMCH3   HA   1       0.1300   0.0000
sMCH3   H4   1       0.1255   0.0000
sMCH3   H5   1       0.1211   0.0000
sMCH3   HO   1       0.0000   0.0000
sMCH3   HS   1       0.0535   0.0000
sMCH3   HW   1       0.0000   0.0000
sMCH3   HP   1       0.0980   0.0000
sMCH3    I   1       0.2094   0.0000
sMCH3   Cl   1       0.2201   0.0000
sMCH3   Na   1       0.1664   0.0000
sMCH3   IB   1       0.4454   0.0000
sMCH3   MG   1       0.0706   0.0000
sMCH3    N   1       0.1625   0.0000
sMCH3   NA   1       0.1625   0.0000
sMCH3   NB   1       0.1625   0.0000
sMCH3   NC   1       0.1625   0.0000
sMCH3   N2   1       0.1625   0.0000
sMCH3   N3   1       0.1625   0.0000
sMCH3   N*   1       0.1625   0.0000
sMCH3    O   1       0.1480   0.0000
sMCH3   OB   1       0.1480   0.0000
sMCH3   OW   1       0.1575   0.0000
sMCH3   OH   1       0.1533   0.0000
sMCH3   O3   1       0.1533   0.0000
sMCH3   OS   1       0.1500   0.0000
sMCH3   O2   1       0.1480   0.0000
sMCH3    P   1       0.1871   0.0000
sMCH3    S   1       0.1782   0.0000
sMCH3   SH   1       0.1782   0.0000
sMCH3   CU   1       0.1700   0.0000
sMCH3   FE   1       0.0000   0.0000
sMCH3    K   1       0.2368   0.0000
sMCH3   Rb   1       0.2633   0.0000
sMCH3   Li   1       0.1013   0.0000
sMCH3   Zn   1       0.0980   0.0000
sMCH3 HW_tip4pew   1       0.0000   0.0000
sMCH3 OW_tip4pew   1       0.1582   0.0000
sMCH3 HW_tip4p   1       0.0000   0.0000
sMCH3 OW_tip4p   1       0.1577   0.0000
sMCH3 HW_tip5p   1       0.0000   0.0000
sMCH3 OW_tip5p   1       0.1560   0.0000
sMCH3 HW_tip4pd   1       0.0000   0.0000
sMCH3 OW_tip4pd   1       0.1583   0.0000
sMCH3   MW   1       0.0000   0.0000
sMCH3 MCH3   1       0.0000   0.0000
sMCH3 MNH3   1       0.0000   0.0000
sMCH3   c3   1       0.1700   0.0000
sMCH3   hc   1       0.1325   0.0000
sMCH3    c   1       0.1700   0.0000
sMCH3    o   1       0.1480   0.0000
sMCH3    n   1       0.1625   0.0000
sMCH3   h1   1       0.1236   0.0000
sMCH3   ca   1       0.1700   0.0000
sMCH3   ha   1       0.1300   0.0000
sMCH3   n3   1       0.1625   0.0000
sMCH3   hx   1       0.0980   0.0000
sMCH3   n4   1       0.1625   0.0000
sMCH3   hn   1       0.0535   0.0000
sMNH3   Br   1       0.0000   0.0000
sMNH3    C   1       0.1700   0.0000
sMNH3   C6   1       0.1700   0.0000
sMNH3   C5   1       0.1700   0.0000
sMNH3   CA   1       0.1700   0.0000
sMNH3   CB   1       0.1700   0.0000
sMNH3   CC   1       0.1700   0.0000
sMNH3   CK   1       0.1700   0.0000
sMNH3   CM   1       0.1700   0.0000
sMNH3   CN   1       0.1700   0.0000
sMNH3   CQ   1       0.1700   0.0000
sMNH3   CR   1       0.1700   0.0000
sMNH3   CT   1       0.1700   0.0000
sMNH3   C1   1       0.1700   0.0000
sMNH3   C3   1       0.1700   0.0000
sMNH3   C4   1       0.1700   0.0000
sMNH3   C7   1       0.1700   0.0000
sMNH3   C8   1       0.1700   0.0000
sMNH3   C9   1       0.1700   0.0000
sMNH3   CV   1       0.1700   0.0000
sMNH3   CW   1       0.1700   0.0000
sMNH3   C*   1       0.1700   0.0000
sMNH3   C0   1       0.1526   0.0000
sMNH3    F   1       0.1559   0.0000
sMNH3    H   1       0.0535   0.0000
sMNH3   HB   1       0.0535   0.0000
sMNH3   HC   1       0.1325   0.0000
sMNH3   H1   1       0.1236   0.0000
sMNH3   H2   1       0.1147   0.0000
sMNH3   H3   1       0.1057   0.0000
sMNH3   HA   1       0.1300   0.0000
sMNH3   H4   1       0.1255   0.0000
sMNH3   H5   1       0.1211   0.0000
sMNH3   HO   1       0.0000   0.0000
sMNH3   HS   1       0.0535   0.0000
sMNH3   HW   1       0.0000   0.0000
sMNH3   HP   1       0.0980   0.0000
sMNH3    I   1       0.2094   0.0000
sMNH3   Cl   1       0.2201   0.0000
sMNH3   Na   1       0.1664   0.0000
sMNH3   IB   1       0.4454   0.0000
sMNH3   MG   1       0.0706   0.0000
sMNH3    N   1       0.1625   0.0000
sMNH3   NA   1       0.1625   0.0000
sMNH3   NB   1       0.1625   0.0000
sMNH3   NC   1       0.1625   0.0000
sMNH3   N2   1       0.1625   0.0000
sMNH3   N3   1       0.1625   0.0000
sMNH3   N*   1       0.1625   0.0000
sMNH3    O   1       0.1480   0.0000
sMNH3   OB   1       0.1480   0.0000
sMNH3   OW   1       0.1575   0.0000
sMNH3   OH   1       0.1533   0.0000
sMNH3   O3   1       0.1533   0.0000
sMNH3   OS   1       0.1500   0.0000
sMNH3   O2   1       0.1480   0.0000
sMNH3    P   1       0.1871   0.0000
sMNH3    S   1       0.1782   0.0000
sMNH3   SH   1       0.1782   0.0000
sMNH3   CU   1       0.1700   0.0000
sMNH3   FE   1       0.0000   0.0000
sMNH3    K   1       0.2368   0.0000
sMNH3   Rb   1       0.2633   0.0000
sMNH3   Li   1       0.1013   0.0000
sMNH3   Zn   1       0.0980   0.0000
sMNH3 HW_tip4pew   1       0.0000   0.0000
sMNH3 OW_tip4pew   1       0.1582   0.0000
sMNH3 HW_tip4p   1       0.0000   0.0000
sMNH3 OW_tip4p   1       0.1577   0.0000
sMNH3 HW_tip5p   1       0.0000   0.0000
sMNH3 OW_tip5p   1       0.1560   0.0000
sMNH3 HW_tip4pd   1       0.0000   0.0000
sMNH3 OW_tip4pd   1       0.1583   0.0000
sMNH3   MW   1       0.0000   0.0000
sMNH3 MCH3   1       0.0000   0.0000
sMNH3 MNH3   1       0.0000   0.0000
sMNH3   c3   1       0.1700   0.0000
sMNH3   hc   1       0.1325   0.0000
sMNH3    c   1       0.1700   0.0000
sMNH3    o   1       0.1480   0.0000
sMNH3    n   1       0.1625   0.0000
sMNH3   h1   1       0.1236   0.0000
sMNH3   ca   1       0.1700   0.0000
sMNH3   ha   1       0.1300   0.0000
sMNH3   n3   1       0.1625   0.0000
sMNH3   hx   1       0.0980   0.0000
sMNH3   n4   1       0.1625   0.0000
sMNH3   hn   1       0.0535   0.0000
  sc3   Br   1       0.1700   0.0000
  sc3    C   1       0.3400   0.1345
  sc3   C6   1       0.3400   0.1345
  sc3   C5   1       0.3400   0.1345
  sc3   CA   1       0.3400   0.1345
  sc3   CB   1       0.3400   0.1345
  sc3   CC   1       0.3400   0.1345
  sc3   CK   1       0.3400   0.1345
  sc3   CM   1       0.3400   0.1345
  sc3   CN   1       0.3400   0.1345
  sc3   CQ   1       0.3400   0.1345
  sc3   CR   1       0.3400   0.1345
  sc3   CT   1       0.3400   0.1517
  sc3   C1   1       0.3400   0.1517
  sc3   C3   1       0.3400   0.1517
  sc3   C4   1       0.3400   0.1517
  sc3   C7   1       0.3400   0.1517
  sc3   C8   1       0.3400   0.1517
  sc3   C9   1       0.3400   0.1517
  sc3   CV   1       0.3400   0.1345
  sc3   CW   1       0.3400   0.1345
  sc3   C*   1       0.3400   0.1345
  sc3   C0   1       0.3226   0.3109
  sc3    F   1       0.3259   0.1132
  sc3    H   1       0.2234   0.0574
  sc3   HB   1       0.2234   0.0574
  sc3   HC   1       0.3025   0.0574
  sc3   H1   1       0.2936   0.0574
  sc3   H2   1       0.2846   0.0574
  sc3   H3   1       0.2757   0.0574
  sc3   HA   1       0.3000   0.0562
  sc3   H4   1       0.2955   0.0562
  sc3   H5   1       0.2911   0.0562
  sc3   HO   1       0.1700   0.0000
  sc3   HS   1       0.2234   0.0574
  sc3   HW   1       0.1700   0.0000
  sc3   HP   1       0.2680   0.0574
  sc3    I   1       0.3793   0.2900
  sc3   Cl   1       0.3900   0.1450
  sc3   Na   1       0.3364   0.0241
  sc3   IB   1       0.6154   0.1450
  sc3   MG   1       0.2406   0.4337
  sc3    N   1       0.3325   0.1890
  sc3   NA   1       0.3325   0.1890
  sc3   NB   1       0.3325   0.1890
  sc3   NC   1       0.3325   0.1890
  sc3   N2   1       0.3325   0.1890
  sc3   N3   1       0.3325   0.1890
  sc3   N*   1       0.3325   0.1890
  sc3    O   1       0.3180   0.2101
  sc3   OB   1       0.3180   0.2101
  sc3   OW   1       0.3275   0.1788
  sc3   OH   1       0.3233   0.2103
  sc3   O3   1       0.3233   0.2103
  sc3   OS   1       0.3200   0.1890
  sc3   O2   1       0.3180   0.2101
  sc3    P   1       0.3571   0.2050
  sc3    S   1       0.3482   0.2292
  sc3   SH   1       0.3482   0.2292
  sc3   CU   1       0.3400   0.1345
  sc3   FE   1       0.1700   0.0000
  sc3    K   1       0.4068   0.0083
  sc3   Rb   1       0.4333   0.0060
  sc3   Li   1       0.2713   0.0620
  sc3   Zn   1       0.2680   0.0513
  sc3 HW_tip4pew   1       0.1700   0.0000
  sc3 OW_tip4pew   1       0.3282   0.1850
  sc3 HW_tip4p   1       0.1700   0.0000
  sc3 OW_tip4p   1       0.3277   0.1805
  sc3 HW_tip5p   1       0.1700   0.0000
  sc3 OW_tip5p   1       0.3260   0.1834
  sc3 HW_tip4pd   1       0.1700   0.0000
  sc3 OW_tip4pd   1       0.3282   0.2240
  sc3   MW   1       0.1700   0.0000
  sc3 MCH3   1       0.1700   0.0000
  sc3 MNH3   1       0.1700   0.0000
  sc3   c3   1       0.3400   0.1517
  sc3   hc   1       0.3025   0.0574
  sc3    c   1       0.3400   0.1345
  sc3    o   1       0.3180   0.2101
  sc3    n   1       0.3325   0.1890
  sc3   h1   1       0.2936   0.0574
  sc3   ca   1       0.3400   0.1345
  sc3   ha   1       0.3000   0.0562
  sc3   n3   1       0.3325   0.1890
  sc3   hx   1       0.2680   0.0574
  sc3   n4   1       0.3325   0.1890
  sc3   hn   1       0.2234   0.0574
  shc   Br   1       0.1325   0.0000
  shc    C   1       0.3025   0.0509
  shc   C6   1       0.3025   0.0509
  shc   C5   1       0.3025   0.0509
  shc   CA   1       0.3025   0.0509
  shc   CB   1       0.3025   0.0509
  shc   CC   1       0.3025   0.0509
  shc   CK   1       0.3025   0.0509
  shc   CM   1       0.3025   0.0509
  shc   CN   1       0.3025   0.0509
  shc   CQ   1       0.3025   0.0509
  shc   CR   1       0.3025   0.0509
  shc   CT   1       0.3025   0.0574
  shc   C1   1       0.3025   0.0574
  shc   C3   1       0.3025   0.0574
  shc   C4   1       0.3025   0.0574
  shc   C7   1       0.3025   0.0574
  shc   C8   1       0.3025   0.0574
  shc   C9   1       0.3025   0.0574
  shc   CV   1       0.3025   0.0509
  shc   CW   1       0.3025   0.0509
  shc   C*   1       0.3025   0.0509
  shc   C0   1       0.2851   0.1178
  shc    F   1       0.2884   0.0429
  shc    H   1       0.1859   0.0218
  shc   HB   1       0.1859   0.0218
  shc   HC   1       0.2650   0.0218
  shc   H1   1       0.2560   0.0218
  shc   H2   1       0.2471   0.0218
  shc   H3   1       0.2382   0.0218
  shc   HA   1       0.2625   0.0213
  shc   H4   1       0.2580   0.0213
  shc   H5   1       0.2535   0.0213
  shc   HO   1       0.1325   0.0000
  shc   HS   1       0.1859   0.0218
  shc   HW   1       0.1325   0.0000
  shc   HP   1       0.2305   0.0218
  shc    I   1       0.3418   0.1099
  shc   Cl   1       0.3525   0.0549
  shc   Na   1       0.2989   0.0091
  shc   IB   1       0.5779   0.0549
  shc   MG   1       0.2031   0.1643
  shc    N   1       0.2950   0.0716
  shc   NA   1       0.2950   0.0716
  shc   NB   1       0.2950   0.0716
  shc   NC   1       0.2950   0.0716
  shc   N2   1       0.2950   0.0716
  shc   N3   1       0.2950   0.0716
  shc   N*   1       0.2950   0.0716
  shc    O   1       0.2805   0.0796
  shc   OB   1       0.2805   0.0796
  shc   OW   1       0.2900   0.0677
  shc   OH   1       0.2858   0.0797
  shc   O3   1       0.2858   0.0797
  shc   OS   1       0.2825   0.0716
  shc   O2   1       0.2805   0.0796
  shc    P   1       0.3196   0.0777
  shc    S   1       0.3107   0.0868
  shc   SH   1       0.3107   0.0868
  shc   CU   1       0.3025   0.0509
  shc   FE   1       0.1325   0.0000
  shc    K   1       0.3693   0.0031
  shc   Rb   1       0.3958   0.0023
  shc   Li   1       0.2338   0.0235
  shc   Zn   1       0.2305   0.0194
  shc HW_tip4pew   1       0.1325   0.0000
  shc OW_tip4pew   1       0.2907   0.0701
  shc HW_tip4p   1       0.1325   0.0000
  shc OW_tip4p   1       0.2902   0.0684
  shc HW_tip5p   1       0.1325   0.0000
  shc OW_tip5p   1       0.2885   0.0695
  shc HW_tip4pd   1       0.1325   0.0000
  shc OW_tip4pd   1       0.2907   0.0849
  shc   MW   1       0.1325   0.0000
  shc MCH3   1       0.1325   0.0000
  shc MNH3   1       0.1325   0.0000
  shc   c3   1       0.3025   0.0574
  shc   hc   1       0.2650   0.0218
  shc    c   1       0.3025   0.0509
  shc    o   1       0.2805   0.0796
  shc    n   1       0.2950   0.0716
  shc   h1   1       0.2560   0.0218
  shc   ca   1       0.3025   0.0509
  shc   ha   1       0.2625   0.0213
  shc   n3   1       0.2950   0.0716
  shc   hx   1       0.2305   0.0218
  shc   n4   1       0.2950   0.0716
  shc   hn   1       0.1859   0.0218
   sc   Br   1       0.1700   0.0000
   sc    C   1       0.3400   0.1192
   sc   C6   1       0.3400   0.1192
   sc   C5   1       0.3400   0.1192
   sc   CA   1       0.3400   0.1192
   sc   CB   1       0.3400   0.1192
   sc   CC   1       0.3400   0.1192
   sc   CK   1       0.3400   0.1192
   sc   CM   1       0.3400   0.1192
   sc   CN   1       0.3400   0.1192
   sc   CQ   1       0.3400   0.1192
   sc   CR   1       0.3400   0.1192
   sc   CT   1       0.3400   0.1345
   sc   C1   1       0.3400   0.1345
   sc   C3   1       0.3400   0.1345
   sc   C4   1       0.3400   0.1345
   sc   C7   1       0.3400   0.1345
   sc   C8   1       0.3400   0.1345
   sc   C9   1       0.3400   0.1345
   sc   CV   1       0.3400   0.1192
   sc   CW   1       0.3400   0.1192
   sc   C*   1       0.3400   0.1192
   sc   C0   1       0.3226   0.2756
   sc    F   1       0.3259   0.1004
   sc    H   1       0.2234   0.0509
   sc   HB   1       0.2234   0.0509
   sc   HC   1       0.3025   0.0509
   sc   H1   1       0.2936   0.0509
   sc   H2   1       0.2846   0.0509
   sc   H3   1       0.2757   0.0509
   sc   HA   1       0.3000   0.0498
   sc   H4   1       0.2955   0.0498
   sc   H5   1       0.2911   0.0498
   sc   HO   1       0.1700   0.0000
   sc   HS   1       0.2234   0.0509
   sc   HW   1       0.1700   0.0000
   sc   HP   1       0.2680   0.0509
   sc    I   1       0.3793   0.2571
   sc   Cl   1       0.3900   0.1286
   sc   Na   1       0.3364   0.0214
   sc   IB   1       0.6154   0.1286
   sc   MG   1       0.2406   0.3845
   sc    N   1       0.3325   0.1676
   sc   NA   1       0.3325   0.1676
   sc   NB   1       0.3325   0.1676
   sc   NC   1       0.3325   0.1676
   sc   N2   1       0.3325   0.1676
   sc   N3   1       0.3325   0.1676
   sc   N*   1       0.3325   0.1676
   sc    O   1       0.3180   0.1863
   sc   OB   1       0.3180   0.1863
   sc   OW   1       0.3275   0.1585
   sc   OH   1       0.3233   0.1865
   sc   O3   1       0.3233   0.1865
   sc   OS   1       0.3200   0.1676
   sc   O2   1       0.3180   0.1863
   sc    P   1       0.3571   0.1818
   sc    S   1       0.3482   0.2033
   sc   SH   1       0.3482   0.2033
   sc   CU   1       0.3400   0.1192
   sc   FE   1       0.1700   0.0000
   sc    K   1       0.4068   0.0074
   sc   Rb   1       0.4333   0.0053
   sc   Li   1       0.2713   0.0550
   sc   Zn   1       0.2680   0.0454
   sc HW_tip4pew   1       0.1700   0.0000
   sc OW_tip4pew   1       0.3282   0.1640
   sc HW_tip4p   1       0.1700   0.0000
   sc OW_tip4p   1       0.3277   0.1600
   sc HW_tip5p   1       0.1700   0.0000
   sc OW_tip5p   1       0.3260   0.1626
   sc HW_tip4pd   1       0.1700   0.0000
   sc OW_tip4pd   1       0.3282   0.1986
   sc   MW   1       0.1700   0.0000
   sc MCH3   1       0.1700   0.0000
   sc MNH3   1       0.1700   0.0000
   sc   c3   1       0.3400   0.1345
   sc   hc   1       0.3025   0.0509
   sc    c   1       0.3400   0.1192
   sc    o   1       0.3180   0.1863
   sc    n   1       0.3325   0.1676
   sc   h1   1       0.2936   0.0509
   sc   ca   1       0.3400   0.1192
   sc   ha   1       0.3000   0.0498
   sc   n3   1       0.3325   0.1676
   sc   hx   1       0.2680   0.0509
   sc   n4   1       0.3325   0.1676
   sc   hn   1       0.2234   0.0509
   so   Br   1       0.1480   0.0000
   so    C   1       0.3180   0.1863
   so   C6   1       0.3180   0.1863
   so   C5   1       0.3180   0.1863
   so   CA   1       0.3180   0.1863
   so   CB   1       0.3180   0.1863
   so   CC   1       0.3180   0.1863
   so   CK   1       0.3180   0.1863
   so   CM   1       0.3180   0.1863
   so   CN   1       0.3180   0.1863
   so   CQ   1       0.3180   0.1863
   so   CR   1       0.3180   0.1863
   so   CT   1       0.3180   0.2101
   so   C1   1       0.3180   0.2101
   so   C3   1       0.3180   0.2101
   so   C4   1       0.3180   0.2101
   so   C7   1       0.3180   0.2101
   so   C8   1       0.3180   0.2101
   so   C9   1       0.3180   0.2101
   so   CV   1       0.3180   0.1863
   so   CW   1       0.3180   0.1863
   so   C*   1       0.3180   0.1863
   so   C0   1       0.3006   0.4307
   so    F   1       0.3039   0.1569
   so    H   1       0.2014   0.0796
   so   HB   1       0.2014   0.0796
   so   HC   1       0.2805   0.0796
   so   H1   1       0.2716   0.0796
   so   H2   1       0.2627   0.0796
   so   H3   1       0.2537   0.0796
   so   HA   1       0.2780   0.0778
   so   H4   1       0.2735   0.0778
   so   H5   1       0.2691   0.0778
   so   HO   1       0.1480   0.0000
   so   HS   1       0.2014   0.0796
   so   HW   1       0.1480   0.0000
   so   HP   1       0.2460   0.0796
   so    I   1       0.3574   0.4018
   so   Cl   1       0.3680   0.2009
   so   Na   1       0.3144   0.0334
   so   IB   1       0.5934   0.2009
   so   MG   1       0.2186   0.6009
   so    N   1       0.3105   0.2619
   so   NA   1       0.3105   0.2619
   so   NB   1       0.3105   0.2619
   so   NC   1       0.3105   0.2619
   so   N2   1       0.3105   0.2619
   so   N3   1       0.3105   0.2619
   so   N*   1       0.3105   0.2619
   so    O   1       0.2960   0.2911
   so   OB   1       0.2960   0.2911
   so   OW   1       0.3055   0.2477
   so   OH   1       0.3013   0.2914
   so   O3   1       0.3013   0.2914
   so   OS   1       0.2980   0.2619
   so   O2   1       0.2960   0.2911
   so    P   1       0.3351   0.2841
   so    S   1       0.3262   0.3176
   so   SH   1       0.3262   0.3176
   so   CU   1       0.3180   0.1863
   so   FE   1       0.1480   0.0000
   so    K   1       0.3848   0.0115
   so   Rb   1       0.4113   0.0083
   so   Li   1       0.2493   0.0859
   so   Zn   1       0.2460   0.0710
   so HW_tip4pew   1       0.1480   0.0000
   so OW_tip4pew   1       0.3062   0.2563
   so HW_tip4p   1       0.1480   0.0000
   so OW_tip4p   1       0.3057   0.2501
   so HW_tip5p   1       0.1480   0.0000
   so OW_tip5p   1       0.3040   0.2541
   so HW_tip4pd   1       0.1480   0.0000
   so OW_tip4pd   1       0.3062   0.3104
   so   MW   1       0.1480   0.0000
   so MCH3   1       0.1480   0.0000
   so MNH3   1       0.1480   0.0000
   so   c3   1       0.3180   0.2101
   so   hc   1       0.2805   0.0796
   so    c   1       0.3180   0.1863
   so    o   1       0.2960   0.2911
   so    n   1       0.3105   0.2619
   so   h1   1       0.2716   0.0796
   so   ca   1       0.3180   0.1863
   so   ha   1       0.2780   0.0778
   so   n3   1       0.3105   0.2619
   so   hx   1       0.2460   0.0796
   so   n4   1       0.3105   0.2619
   so   hn   1       0.2014   0.0796
   sn   Br   1       0.1625   0.0000
   sn    C   1       0.3325   0.1676
   sn   C6   1       0.3325   0.1676
   sn   C5   1       0.3325   0.1676
   sn   CA   1       0.3325   0.1676
   sn   CB   1       0.3325   0.1676
   sn   CC   1       0.3325   0.1676
   sn   CK   1       0.3325   0.1676
   sn   CM   1       0.3325   0.1676
   sn   CN   1       0.3325   0.1676
   sn   CQ   1       0.3325   0.1676
   sn   CR   1       0.3325   0.1676
   sn   CT   1       0.3325   0.1890
   sn   C1   1       0.3325   0.1890
   sn   C3   1       0.3325   0.1890
   sn   C4   1       0.3325   0.1890
   sn   C7   1       0.3325   0.1890
   sn   C8   1       0.3325   0.1890
   sn   C9   1       0.3325   0.1890
   sn   CV   1       0.3325   0.1676
   sn   CW   1       0.3325   0.1676
   sn   C*   1       0.3325   0.1676
   sn   C0   1       0.3151   0.3876
   sn    F   1       0.3184   0.1412
   sn    H   1       0.2160   0.0716
   sn   HB   1       0.2160   0.0716
   sn   HC   1       0.2950   0.0716
   sn   H1   1       0.2861   0.0716
   sn   H2   1       0.2772   0.0716
   sn   H3   1       0.2682   0.0716
   sn   HA   1       0.2925   0.0700
   sn   H4   1       0.2880   0.0700
   sn   H5   1       0.2836   0.0700
   sn   HO   1       0.1625   0.0000
   sn   HS   1       0.2160   0.0716
   sn   HW   1       0.1625   0.0000
   sn   HP   1       0.2605   0.0716
   sn    I   1       0.3719   0.3615
   sn   Cl   1       0.3826   0.1807
   sn   Na   1       0.3289   0.0301
   sn   IB   1       0.6079   0.1807
   sn   MG   1       0.2331   0.5406
   sn    N   1       0.3250   0.2357
   sn   NA   1       0.3250   0.2357
   sn   NB   1       0.3250   0.2357
   sn   NC   1       0.3250   0.2357
   sn   N2   1       0.3250   0.2357
   sn   N3   1       0.3250   0.2357
   sn   N*   1       0.3250   0.2357
   sn    O   1       0.3105   0.2619
   sn   OB   1       0.3105   0.2619
   sn   OW   1       0.3200   0.2229
   sn   OH   1       0.3158   0.2622
   sn   O3   1       0.3158   0.2622
   sn   OS   1       0.3125   0.2357
   sn   O2   1       0.3105   0.2619
   sn    P   1       0.3496   0.2556
   sn    S   1       0.3407   0.2858
   sn   SH   1       0.3407   0.2858
   sn   CU   1       0.3325   0.1676
   sn   FE   1       0.1625   0.0000
   sn    K   1       0.3993   0.0104
   sn   Rb   1       0.4258   0.0075
   sn   Li   1       0.2638   0.0773
   sn   Zn   1       0.2605   0.0639
   sn HW_tip4pew   1       0.1625   0.0000
   sn OW_tip4pew   1       0.3207   0.2306
   sn HW_tip4p   1       0.1625   0.0000
   sn OW_tip4p   1       0.3202   0.2250
   sn HW_tip5p   1       0.1625   0.0000
   sn OW_tip5p   1       0.3185   0.2286
   sn HW_tip4pd   1       0.1625   0.0000
   sn OW_tip4pd   1       0.3207   0.2793
   sn   MW   1       0.1625   0.0000
   sn MCH3   1       0.1625   0.0000
   sn MNH3   1       0.1625   0.0000
   sn   c3   1       0.3325   0.1890
   sn   hc   1       0.2950   0.0716
   sn    c   1       0.3325   0.1676
   sn    o   1       0.3105   0.2619
   sn    n   1       0.3250   0.2357
   sn   h1   1       0.2861   0.0716
   sn   ca   1       0.3325   0.1676
   sn   ha   1       0.2925   0.0700
   sn   n3   1       0.3250   0.2357
   sn   hx   1       0.2605   0.0716
   sn   n4   1       0.3250   0.2357
   sn   hn   1       0.2160   0.0716
  sh1   Br   1       0.1236   0.0000
  sh1    C   1       0.2936   0.0509
  sh1   C6   1       0.2936   0.0509
  sh1   C5   1       0.2936   0.0509
  sh1   CA   1       0.2936   0.0509
  sh1   CB   1       0.2936   0.0509
  sh1   CC   1       0.2936   0.0509
  sh1   CK   1       0.2936   0.0509
  sh1   CM   1       0.2936   0.0509
  sh1   CN   1       0.2936   0.0509
  sh1   CQ   1       0.2936   0.0509
  sh1   CR   1       0.2936   0.0509
  sh1   CT   1       0.2936   0.0574
  sh1   C1   1       0.2936   0.0574
  sh1   C3   1       0.2936   0.0574
  sh1   C4   1       0.2936   0.0574
  sh1   C7   1       0.2936   0.0574
  sh1   C8   1       0.2936   0.0574
  sh1   C9   1       0.2936   0.0574
  sh1   CV   1       0.2936   0.0509
  sh1   CW   1       0.2936   0.0509
  sh1   C*   1       0.2936   0.0509
  sh1   C0   1       0.2762   0.1178
  sh1    F   1       0.2795   0.0429
  sh1    H   1       0.1770   0.0218
  sh1   HB   1       0.1770   0.0218
  sh1   HC   1       0.2560   0.0218
  sh1   H1   1       0.2471   0.0218
  sh1   H2   1       0.2382   0.0218
  sh1   H3   1       0.2293   0.0218
  sh1   HA   1       0.2535   0.0213
  sh1   H4   1       0.2491   0.0213
  sh1   H5   1       0.2446   0.0213
  sh1   HO   1       0.1236   0.0000
  sh1   HS   1       0.1770   0.0218
  sh1   HW   1       0.1236   0.0000
  sh1   HP   1       0.2216   0.0218
  sh1    I   1       0.3329   0.1099
  sh1   Cl   1       0.3436   0.0549
  sh1   Na   1       0.2900   0.0091
  sh1   IB   1       0.5690   0.0549
  sh1   MG   1       0.1942   0.1643
  sh1    N   1       0.2861   0.0716
  sh1   NA   1       0.2861   0.0716
  sh1   NB   1       0.2861   0.0716
  sh1   NC   1       0.2861   0.0716
  sh1   N2   1       0.2861   0.0716
  sh1   N3   1       0.2861   0.0716
  sh1   N*   1       0.2861   0.0716
  sh1    O   1       0.2716   0.0796
  sh1   OB   1       0.2716   0.0796
  sh1   OW   1       0.2811   0.0677
  sh1   OH   1       0.2769   0.0797
  sh1   O3   1       0.2769   0.0797
  sh1   OS   1       0.2736   0.0716
  sh1   O2   1       0.2716   0.0796
  sh1    P   1       0.3107   0.0777
  sh1    S   1       0.3017   0.0868
  sh1   SH   1       0.3017   0.0868
  sh1   CU   1       0.2936   0.0509
  sh1   FE   1       0.1236   0.0000
  sh1    K   1       0.3604   0.0031
  sh1   Rb   1       0.3869   0.0023
  sh1   Li   1       0.2249   0.0235
  sh1   Zn   1       0.2216   0.0194
  sh1 HW_tip4pew   1       0.1236   0.0000
  sh1 OW_tip4pew   1       0.2818   0.0701
  sh1 HW_tip4p   1       0.1236   0.0000
  sh1 OW_tip4p   1       0.2812   0.0684
  sh1 HW_tip5p   1       0.1236   0.0000
  sh1 OW_tip5p   1       0.2796   0.0695
  sh1 HW_tip4pd   1       0.1236   0.0000
  sh1 OW_tip4pd   1       0.2818   0.0849
  sh1   MW   1       0.1236   0.0000
  sh1 MCH3   1       0.1236   0.0000
  sh1 MNH3   1       0.1236   0.0000
  sh1   c3   1       0.2936   0.0574
  sh1   hc   1       0.2560   0.0218
  sh1    c   1       0.2936   0.0509
  sh1    o   1       0.2716   0.0796
  sh1    n   1       0.2861   0.0716
  sh1   h1   1       0.2471   0.0218
  sh1   ca   1       0.2936   0.0509
  sh1   ha   1       0.2535   0.0213
  sh1   n3   1       0.2861   0.0716
  sh1   hx   1       0.2216   0.0218
  sh1   n4   1       0.2861   0.0716
  sh1   hn   1       0.1770   0.0218
  sca   Br   1       0.1700   0.0000
  sca    C   1       0.3400   0.1192
  sca   C6   1       0.3400   0.1192
  sca   C5   1       0.3400   0.1192
  sca   CA   1       0.3400   0.1192
  sca   CB   1       0.3400   0.1192
  sca   CC   1       0.3400   0.1192
  sca   CK   1       0.3400   0.1192
  sca   CM   1       0.3400   0.1192
  sca   CN   1       0.3400   0.1192
  sca   CQ   1       0.3400   0.1192
  sca   CR   1       0.3400   0.1192
  sca   CT   1       0.3400   0.1345
  sca   C1   1       0.3400   0.1345
  sca   C3   1       0.3400   0.1345
  sca   C4   1       0.3400   0.1345
  sca   C7   1       0.3400   0.1345
  sca   C8   1       0.3400   0.1345
  sca   C9   1       0.3400   0.1345
  sca   CV   1       0.3400   0.1192
  sca   CW   1       0.3400   0.1192
  sca   C*   1       0.3400   0.1192
  sca   C0   1       0.3226   0.2756
  sca    F   1       0.3259   0.1004
  sca    H   1       0.2234   0.0509
  sca   HB   1       0.2234   0.0509
  sca   HC   1       0.3025   0.0509
  sca   H1   1       0.2936   0.0509
  sca   H2   1       0.2846   0.0509
  sca   H3   1       0.2757   0.0509
  sca   HA   1       0.3000   0.0498
  sca   H4   1       0.2955   0.0498
  sca   H5   1       0.2911   0.0498
  sca   HO   1       0.1700   0.0000
  sca   HS   1       0.2234   0.0509
  sca   HW   1       0.1700   0.0000
  sca   HP   1       0.2680   0.0509
  sca    I   1       0.3793   0.2571
  sca   Cl   1       0.3900   0.1286
  sca   Na   1       0.3364   0.0214
  sca   IB   1       0.6154   0.1286
  sca   MG   1       0.2406   0.3845
  sca    N   1       0.3325   0.1676
  sca   NA   1       0.3325   0.1676
  sca   NB   1       0.3325   0.1676
  sca   NC   1       0.3325   0.1676
  sca   N2   1       0.3325   0.1676
  sca   N3   1       0.3325   0.1676
  sca   N*   1       0.3325   0.1676
  sca    O   1       0.3180   0.1863
  sca   OB   1       0.3180   0.1863
  sca   OW   1       0.3275   0.1585
  sca   OH   1       0.3233   0.1865
  sca   O3   1       0.3233   0.1865
  sca   OS   1       0.3200   0.1676
  sca   O2   1       0.3180   0.1863
  sca    P   1       0.3571   0.1818
  sca    S   1       0.3482   0.2033
  sca   SH   1       0.3482   0.2033
  sca   CU   1       0.3400   0.1192
  sca   FE   1       0.1700   0.0000
  sca    K   1       0.4068   0.0074
  sca   Rb   1       0.4333   0.0053
  sca   Li   1       0.2713   0.0550
  sca   Zn   1       0.2680   0.0454
  sca HW_tip4pew   1       0.1700   0.0000
  sca OW_tip4pew   1       0.3282   0.1640
  sca HW_tip4p   1       0.1700   0.0000
  sca OW_tip4p   1       0.3277   0.1600
  sca HW_tip5p   1       0.1700   0.0000
  sca OW_tip5p   1       0.3260   0.1626
  sca HW_tip4pd   1       0.1700   0.0000
  sca OW_tip4pd   1       0.3282   0.1986
  sca   MW   1       0.1700   0.0000
  sca MCH3   1       0.1700   0.0000
  sca MNH3   1       0.1700   0.0000
  sca   c3   1       0.3400   0.1345
  sca   hc   1       0.3025   0.0509
  sca    c   1       0.3400   0.1192
  sca    o   1       0.3180   0.1863
  sca    n   1       0.3325   0.1676
  sca   h1   1       0.2936   0.0509
  sca   ca   1       0.3400   0.1192
  sca   ha   1       0.3000   0.0498
  sca   n3   1       0.3325   0.1676
  sca   hx   1       0.2680   0.0509
  sca   n4   1       0.3325   0.1676
  sca   hn   1       0.2234   0.0509
  sha   Br   1       0.1300   0.0000
  sha    C   1       0.3000   0.0498
  sha   C6   1       0.3000   0.0498
  sha   C5   1       0.3000   0.0498
  sha   CA   1       0.3000   0.0498
  sha   CB   1       0.3000   0.0498
  sha   CC   1       0.3000   0.0498
  sha   CK   1       0.3000   0.0498
  sha   CM   1       0.3000   0.0498
  sha   CN   1       0.3000   0.0498
  sha   CQ   1       0.3000   0.0498
  sha   CR   1       0.3000   0.0498
  sha   CT   1       0.3000   0.0562
  sha   C1   1       0.3000   0.0562
  sha   C3   1       0.3000   0.0562
  sha   C4   1       0.3000   0.0562
  sha   C7   1       0.3000   0.0562
  sha   C8   1       0.3000   0.0562
  sha   C9   1       0.3000   0.0562
  sha   CV   1       0.3000   0.0498
  sha   CW   1       0.3000   0.0498
  sha   C*   1       0.3000   0.0498
  sha   C0   1       0.2826   0.1151
  sha    F   1       0.2859   0.0419
  sha    H   1       0.1834   0.0213
  sha   HB   1       0.1834   0.0213
  sha   HC   1       0.2625   0.0213
  sha   H1   1       0.2535   0.0213
  sha   H2   1       0.2446   0.0213
  sha   H3   1       0.2357   0.0213
  sha   HA   1       0.2600   0.0208
  sha   H4   1       0.2555   0.0208
  sha   H5   1       0.2511   0.0208
  sha   HO   1       0.1300   0.0000
  sha   HS   1       0.1834   0.0213
  sha   HW   1       0.1300   0.0000
  sha   HP   1       0.2280   0.0213
  sha    I   1       0.3393   0.1074
  sha   Cl   1       0.3500   0.0537
  sha   Na   1       0.2964   0.0089
  sha   IB   1       0.5754   0.0537
  sha   MG   1       0.2006   0.1606
  sha    N   1       0.2925   0.0700
  sha   NA   1       0.2925   0.0700
  sha   NB   1       0.2925   0.0700
  sha   NC   1       0.2925   0.0700
  sha   N2   1       0.2925   0.0700
  sha   N3   1       0.2925   0.0700
  sha   N*   1       0.2925   0.0700
  sha    O   1       0.2780   0.0778
  sha   OB   1       0.2780   0.0778
  sha   OW   1       0.2875   0.0662
  sha   OH   1       0.2833   0.0779
  sha   O3   1       0.2833   0.0779
  sha   OS   1       0.2800   0.0700
  sha   O2   1       0.2780   0.0778
  sha    P   1       0.3171   0.0759
  sha    S   1       0.3082   0.0849
  sha   SH   1       0.3082   0.0849
  sha   CU   1       0.3000   0.0498
  sha   FE   1       0.1300   0.0000
  sha    K   1       0.3668   0.0031
  sha   Rb   1       0.3933   0.0022
  sha   Li   1       0.2313   0.0230
  sha   Zn   1       0.2280   0.0190
  sha HW_tip4pew   1       0.1300   0.0000
  sha OW_tip4pew   1       0.2882   0.0685
  sha HW_tip4p   1       0.1300   0.0000
  sha OW_tip4p   1       0.2877   0.0668
  sha HW_tip5p   1       0.1300   0.0000
  sha OW_tip5p   1       0.2860   0.0679
  sha HW_tip4pd   1       0.1300   0.0000
  sha OW_tip4pd   1       0.2882   0.0830
  sha   MW   1       0.1300   0.0000
  sha MCH3   1       0.1300   0.0000
  sha MNH3   1       0.1300   0.0000
  sha   c3   1       0.3000   0.0562
  sha   hc   1       0.2625   0.0213
  sha    c   1       0.3000   0.0498
  sha    o   1       0.2780   0.0778
  sha    n   1       0.2925   0.0700
  sha   h1   1       0.2535   0.0213
  sha   ca   1       0.3000   0.0498
  sha   ha   1       0.2600   0.0208
  sha   n3   1       0.2925   0.0700
  sha   hx   1       0.2280   0.0213
  sha   n4   1       0.2925   0.0700
  sha   hn   1       0.1834   0.0213
   sy   Br   1       0.1782   0.0000
   sy    C   1       0.3482   0.5175
   sy   C6   1       0.3482   0.5175
   sy   C5   1       0.3482   0.5175
   sy   CA   1       0.3482   0.5175
   sy   CB   1       0.3482   0.5175
   sy   CC   1       0.3482   0.5175
   sy   CK   1       0.3482   0.5175
   sy   CM   1       0.3482   0.5175
   sy   CN   1       0.3482   0.5175
   sy   CQ   1       0.3482   0.5175
   sy   CR   1       0.3482   0.5175
   sy   CT   1       0.3482   0.5837
   sy   C1   1       0.3482   0.5837
   sy   C3   1       0.3482   0.5837
   sy   C4   1       0.3482   0.5837
   sy   C7   1       0.3482   0.5837
   sy   C8   1       0.3482   0.5837
   sy   C9   1       0.3482   0.5837
   sy   CV   1       0.3482   0.5175
   sy   CW   1       0.3482   0.5175
   sy   C*   1       0.3482   0.5175
   sy   C0   1       0.3308   1.1966
   sy    F   1       0.3341   0.4359
   sy    H   1       0.2316   0.2211
   sy   HB   1       0.2316   0.2211
   sy   HC   1       0.3107   0.2211
   sy   H1   1       0.3017   0.2211
   sy   H2   1       0.2928   0.2211
   sy   H3   1       0.2839   0.2211
   sy   HA   1       0.3082   0.2161
   sy   H4   1       0.3037   0.2161
   sy   H5   1       0.2993   0.2161
   sy   HO   1       0.1782   0.0000
   sy   HS   1       0.2316   0.2211
   sy   HW   1       0.1782   0.0000
   sy   HP   1       0.2762   0.2211
   sy    I   1       0.3875   1.1161
   sy   Cl   1       0.3982   0.5580
   sy   Na   1       0.3446   0.0929
   sy   IB   1       0.6236   0.5580
   sy   MG   1       0.2488   1.6692
   sy    N   1       0.3407   0.7276
   sy   NA   1       0.3407   0.7276
   sy   NB   1       0.3407   0.7276
   sy   NC   1       0.3407   0.7276
   sy   N2   1       0.3407   0.7276
   sy   N3   1       0.3407   0.7276
   sy   N*   1       0.3407   0.7276
   sy    O   1       0.3262   0.8087
   sy   OB   1       0.3262   0.8087
   sy   OW   1       0.3357   0.6882
   sy   OH   1       0.3315   0.8095
   sy   O3   1       0.3315   0.8095
   sy   OS   1       0.3282   0.7276
   sy   O2   1       0.3262   0.8087
   sy    P   1       0.3653   0.7892
   sy    S   1       0.3564   0.8824
   sy   SH   1       0.3564   0.8824
   sy   CU   1       0.3482   0.5175
   sy   FE   1       0.1782   0.0000
   sy    K   1       0.4150   0.0320
   sy   Rb   1       0.4415   0.0230
   sy   Li   1       0.2795   0.2387
   sy   Zn   1       0.2762   0.1973
   sy HW_tip4pew   1       0.1782   0.0000
   sy OW_tip4pew   1       0.3364   0.7119
   sy HW_tip4p   1       0.1782   0.0000
   sy OW_tip4p   1       0.3359   0.6948
   sy HW_tip5p   1       0.1782   0.0000
   sy OW_tip5p   1       0.3342   0.7059
   sy HW_tip4pd   1       0.1782   0.0000
   sy OW_tip4pd   1       0.3364   0.8623
   sy   MW   1       0.1782   0.0000
   sy MCH3   1       0.1782   0.0000
   sy MNH3   1       0.1782   0.0000
   sy   c3   1       0.3482   0.5837
   sy   hc   1       0.3107   0.2211
   sy    c   1       0.3482   0.5175
   sy    o   1       0.3262   0.8087
   sy    n   1       0.3407   0.7276
   sy   h1   1       0.3017   0.2211
   sy   ca   1       0.3482   0.5175
   sy   ha   1       0.3082   0.2161
   sy   n3   1       0.3407   0.7276
   sy   hx   1       0.2762   0.2211
   sy   n4   1       0.3407   0.7276
   sy   hn   1       0.2316   0.2211
  ssy   Br   1       0.1782   0.0000
  ssy    C   1       0.3482   0.2033
  ssy   C6   1       0.3482   0.2033
  ssy   C5   1       0.3482   0.2033
  ssy   CA   1       0.3482   0.2033
  ssy   CB   1       0.3482   0.2033
  ssy   CC   1       0.3482   0.2033
  ssy   CK   1       0.3482   0.2033
  ssy   CM   1       0.3482   0.2033
  ssy   CN   1       0.3482   0.2033
  ssy   CQ   1       0.3482   0.2033
  ssy   CR   1       0.3482   0.2033
  ssy   CT   1       0.3482   0.2292
  ssy   C1   1       0.3482   0.2292
  ssy   C3   1       0.3482   0.2292
  ssy   C4   1       0.3482   0.2292
  ssy   C7   1       0.3482   0.2292
  ssy   C8   1       0.3482   0.2292
  ssy   C9   1       0.3482   0.2292
  ssy   CV   1       0.3482   0.2033
  ssy   CW   1       0.3482   0.2033
  ssy   C*   1       0.3482   0.2033
  ssy   C0   1       0.3308   0.4700
  ssy    F   1       0.3341   0.1712
  ssy    H   1       0.2316   0.0868
  ssy   HB   1       0.2316   0.0868
  ssy   HC   1       0.3107   0.0868
  ssy   H1   1       0.3017   0.0868
  ssy   H2   1       0.2928   0.0868
  ssy   H3   1       0.2839   0.0868
  ssy   HA   1       0.3082   0.0849
  ssy   H4   1       0.3037   0.0849
  ssy   H5   1       0.2993   0.0849
  ssy   HO   1       0.1782   0.0000
  ssy   HS   1       0.2316   0.0868
  ssy   HW   1       0.1782   0.0000
  ssy   HP   1       0.2762   0.0868
  ssy    I   1       0.3875   0.4384
  ssy   Cl   1       0.3982   0.2192
  ssy   Na   1       0.3446   0.0365
  ssy   IB   1       0.6236   0.2192
  ssy   MG   1       0.2488   0.6556
  ssy    N   1       0.3407   0.2858
  ssy   NA   1       0.3407   0.2858
  ssy   NB   1       0.3407   0.2858
  ssy   NC   1       0.3407   0.2858
  ssy   N2   1       0.3407   0.2858
  ssy   N3   1       0.3407   0.2858
  ssy   N*   1       0.3407   0.2858
  ssy    O   1       0.3262   0.3176
  ssy   OB   1       0.3262   0.3176
  ssy   OW   1       0.3357   0.2703
  ssy   OH   1       0.3315   0.3179
  ssy   O3   1       0.3315   0.3179
  ssy   OS   1       0.3282   0.2858
  ssy   O2   1       0.3262   0.3176
  ssy    P   1       0.3653   0.3100
  ssy    S   1       0.3564   0.3466
  ssy   SH   1       0.3564   0.3466
  ssy   CU   1       0.3482   0.2033
  ssy   FE   1       0.1782   0.0000
  ssy    K   1       0.4150   0.0126
  ssy   Rb   1       0.4415   0.0090
  ssy   Li   1       0.2795   0.0938
  ssy   Zn   1       0.2762   0.0775
  ssy HW_tip4pew   1       0.1782   0.0000
  ssy OW_tip4pew   1       0.3364   0.2796
  ssy HW_tip4p   1       0.1782   0.0000
  ssy OW_tip4p   1       0.3359   0.2729
  ssy HW_tip5p   1       0.1782   0.0000
  ssy OW_tip5p   1       0.3342   0.2772
  ssy HW_tip4pd   1       0.1782   0.0000
  ssy OW_tip4pd   1       0.3364   0.3387
  ssy   MW   1       0.1782   0.0000
  ssy MCH3   1       0.1782   0.0000
  ssy MNH3   1       0.1782   0.0000
  ssy   c3   1       0.3482   0.2292
  ssy   hc   1       0.3107   0.0868
  ssy    c   1       0.3482   0.2033
  ssy    o   1       0.3262   0.3176
  ssy    n   1       0.3407   0.2858
  ssy   h1   1       0.3017   0.0868
  ssy   ca   1       0.3482   0.2033
  ssy   ha   1       0.3082   0.0849
  ssy   n3   1       0.3407   0.2858
  ssy   hx   1       0.2762   0.0868
  ssy   n4   1       0.3407   0.2858
  ssy   hn   1       0.2316   0.0868
  sn3   Br   1       0.1625   0.0000
  sn3    C   1       0.3325   0.1676
  sn3   C6   1       0.3325   0.1676
  sn3   C5   1       0.3325   0.1676
  sn3   CA   1       0.3325   0.1676
  sn3   CB   1       0.3325   0.1676
  sn3   CC   1       0.3325   0.1676
  sn3   CK   1       0.3325   0.1676
  sn3   CM   1       0.3325   0.1676
  sn3   CN   1       0.3325   0.1676
  sn3   CQ   1       0.3325   0.1676
  sn3   CR   1       0.3325   0.1676
  sn3   CT   1       0.3325   0.1890
  sn3   C1   1       0.3325   0.1890
  sn3   C3   1       0.3325   0.1890
  sn3   C4   1       0.3325   0.1890
  sn3   C7   1       0.3325   0.1890
  sn3   C8   1       0.3325   0.1890
  sn3   C9   1       0.3325   0.1890
  sn3   CV   1       0.3325   0.1676
  sn3   CW   1       0.3325   0.1676
  sn3   C*   1       0.3325   0.1676
  sn3   C0   1       0.3151   0.3876
  sn3    F   1       0.3184   0.1412
  sn3    H   1       0.2160   0.0716
  sn3   HB   1       0.2160   0.0716
  sn3   HC   1       0.2950   0.0716
  sn3   H1   1       0.2861   0.0716
  sn3   H2   1       0.2772   0.0716
  sn3   H3   1       0.2682   0.0716
  sn3   HA   1       0.2925   0.0700
  sn3   H4   1       0.2880   0.0700
  sn3   H5   1       0.2836   0.0700
  sn3   HO   1       0.1625   0.0000
  sn3   HS   1       0.2160   0.0716
  sn3   HW   1       0.1625   0.0000
  sn3   HP   1       0.2605   0.0716
  sn3    I   1       0.3719   0.3615
  sn3   Cl   1       0.3826   0.1807
  sn3   Na   1       0.3289   0.0301
  sn3   IB   1       0.6079   0.1807
  sn3   MG   1       0.2331   0.5406
  sn3    N   1       0.3250   0.2357
  sn3   NA   1       0.3250   0.2357
  sn3   NB   1       0.3250   0.2357
  sn3   NC   1       0.3250   0.2357
  sn3   N2   1       0.3250   0.2357
  sn3   N3   1       0.3250   0.2357
  sn3   N*   1       0.3250   0.2357
  sn3    O   1       0.3105   0.2619
  sn3   OB   1       0.3105   0.2619
  sn3   OW   1       0.3200   0.2229
  sn3   OH   1       0.3158   0.2622
  sn3   O3   1       0.3158   0.2622
  sn3   OS   1       0.3125   0.2357
  sn3   O2   1       0.3105   0.2619
  sn3    P   1       0.3496   0.2556
  sn3    S   1       0.3407   0.2858
  sn3   SH   1       0.3407   0.2858
  sn3   CU   1       0.3325   0.1676
  sn3   FE   1       0.1625   0.0000
  sn3    K   1       0.3993   0.0104
  sn3   Rb   1       0.4258   0.0075
  sn3   Li   1       0.2638   0.0773
  sn3   Zn   1       0.2605   0.0639
  sn3 HW_tip4pew   1       0.1625   0.0000
  sn3 OW_tip4pew   1       0.3207   0.2306
  sn3 HW_tip4p   1       0.1625   0.0000
  sn3 OW_tip4p   1       0.3202   0.2250
  sn3 HW_tip5p   1       0.1625   0.0000
  sn3 OW_tip5p   1       0.3185   0.2286
  sn3 HW_tip4pd   1       0.1625   0.0000
  sn3 OW_tip4pd   1       0.3207   0.2793
  sn3   MW   1       0.1625   0.0000
  sn3 MCH3   1       0.1625   0.0000
  sn3 MNH3   1       0.1625   0.0000
  sn3   c3   1       0.3325   0.1890
  sn3   hc   1       0.2950   0.0716
  sn3    c   1       0.3325   0.1676
  sn3    o   1       0.3105   0.2619
  sn3    n   1       0.3250   0.2357
  sn3   h1   1       0.2861   0.0716
  sn3   ca   1       0.3325   0.1676
  sn3   ha   1       0.2925   0.0700
  sn3   n3   1       0.3250   0.2357
  sn3   hx   1       0.2605   0.0716
  sn3   n4   1       0.3250   0.2357
  sn3   hn   1       0.2160   0.0716
  shx   Br   1       0.0980   0.0000
  shx    C   1       0.2680   0.0509
  shx   C6   1       0.2680   0.0509
  shx   C5   1       0.2680   0.0509
  shx   CA   1       0.2680   0.0509
  shx   CB   1       0.2680   0.0509
  shx   CC   1       0.2680   0.0509
  shx   CK   1       0.2680   0.0509
  shx   CM   1       0.2680   0.0509
  shx   CN   1       0.2680   0.0509
  shx   CQ   1       0.2680   0.0509
  shx   CR   1       0.2680   0.0509
  shx   CT   1       0.2680   0.0574
  shx   C1   1       0.2680   0.0574
  shx   C3   1       0.2680   0.0574
  shx   C4   1       0.2680   0.0574
  shx   C7   1       0.2680   0.0574
  shx   C8   1       0.2680   0.0574
  shx   C9   1       0.2680   0.0574
  shx   CV   1       0.2680   0.0509
  shx   CW   1       0.2680   0.0509
  shx   C*   1       0.2680   0.0509
  shx   C0   1       0.2506   0.1178
  shx    F   1       0.2539   0.0429
  shx    H   1       0.1515   0.0218
  shx   HB   1       0.1515   0.0218
  shx   HC   1       0.2305   0.0218
  shx   H1   1       0.2216   0.0218
  shx   H2   1       0.2127   0.0218
  shx   H3   1       0.2037   0.0218
  shx   HA   1       0.2280   0.0213
  shx   H4   1       0.2235   0.0213
  shx   H5   1       0.2191   0.0213
  shx   HO   1       0.0980   0.0000
  shx   HS   1       0.1515   0.0218
  shx   HW   1       0.0980   0.0000
  shx   HP   1       0.1960   0.0218
  shx    I   1       0.3074   0.1099
  shx   Cl   1       0.3181   0.0549
  shx   Na   1       0.2644   0.0091
  shx   IB   1       0.5434   0.0549
  shx   MG   1       0.1686   0.1643
  shx    N   1       0.2605   0.0716
  shx   NA   1       0.2605   0.0716
  shx   NB   1       0.2605   0.0716
  shx   NC   1       0.2605   0.0716
  shx   N2   1       0.2605   0.0716
  shx   N3   1       0.2605   0.0716
  shx   N*   1       0.2605   0.0716
  shx    O   1       0.2460   0.0796
  shx   OB   1       0.2460   0.0796
  shx   OW   1       0.2555   0.0677
  shx   OH   1       0.2513   0.0797
  shx   O3   1       0.2513   0.0797
  shx   OS   1       0.2480   0.0716
  shx   O2   1       0.2460   0.0796
  shx    P   1       0.2851   0.0777
  shx    S   1       0.2762   0.0868
  shx   SH   1       0.2762   0.0868
  shx   CU   1       0.2680   0.0509
  shx   FE   1       0.0980   0.0000
  shx    K   1       0.3348   0.0031
  shx   Rb   1       0.3613   0.0023
  shx   Li   1       0.1993   0.0235
  shx   Zn   1       0.1960   0.0194
  shx HW_tip4pew   1       0.0980   0.0000
  shx OW_tip4pew   1       0.2562   0.0701
  shx HW_tip4p   1       0.0980   0.0000
  shx OW_tip4p   1       0.2557   0.0684
  shx HW_tip5p   1       0.0980   0.0000
  shx OW_tip5p   1       0.2540   0.0695
  shx HW_tip4pd   1       0.0980   0.0000
  shx OW_tip4pd   1       0.2562   0.0849
  shx   MW   1       0.0980   0.0000
  shx MCH3   1       0.0980   0.0000
  shx MNH3   1       0.0980   0.0000
  shx   c3   1       0.2680   0.0574
  shx   hc   1       0.2305   0.0218
  shx    c   1       0.2680   0.0509
  shx    o   1       0.2460   0.0796
  shx    n   1       0.2605   0.0716
  shx   h1   1       0.2216   0.0218
  shx   ca   1       0.2680   0.0509
  shx   ha   1       0.2280   0.0213
  shx   n3   1       0.2605   0.0716
  shx   hx   1       0.1960   0.0218
  shx   n4   1       0.2605   0.0716
  shx   hn   1       0.1515   0.0218
  sn4   Br   1       0.1625   0.0000
  sn4    C   1       0.3325   0.1676
  sn4   C6   1       0.3325   0.1676
  sn4   C5   1       0.3325   0.1676
  sn4   CA   1       0.3325   0.1676
  sn4   CB   1       0.3325   0.1676
  sn4   CC   1       0.3325   0.1676
  sn4   CK   1       0.3325   0.1676
  sn4   CM   1       0.3325   0.1676
  sn4   CN   1       0.3325   0.1676
  sn4   CQ   1       0.3325   0.1676
  sn4   CR   1       0.3325   0.1676
  sn4   CT   1       0.3325   0.1890
  sn4   C1   1       0.3325   0.1890
  sn4   C3   1       0.3325   0.1890
  sn4   C4   1       0.3325   0.1890
  sn4   C7   1       0.3325   0.1890
  sn4   C8   1       0.3325   0.1890
  sn4   C9   1       0.3325   0.1890
  sn4   CV   1       0.3325   0.1676
  sn4   CW   1       0.3325   0.1676
  sn4   C*   1       0.3325   0.1676
  sn4   C0   1       0.3151   0.3876
  sn4    F   1       0.3184   0.1412
  sn4    H   1       0.2160   0.0716
  sn4   HB   1       0.2160   0.0716
  sn4   HC   1       0.2950   0.0716
  sn4   H1   1       0.2861   0.0716
  sn4   H2   1       0.2772   0.0716
  sn4   H3   1       0.2682   0.0716
  sn4   HA   1       0.2925   0.0700
  sn4   H4   1       0.2880   0.0700
  sn4   H5   1       0.2836   0.0700
  sn4   HO   1       0.1625   0.0000
  sn4   HS   1       0.2160   0.0716
  sn4   HW   1       0.1625   0.0000
  sn4   HP   1       0.2605   0.0716
  sn4    I   1       0.3719   0.3615
  sn4   Cl   1       0.3826   0.1807
  sn4   Na   1       0.3289   0.0301
  sn4   IB   1       0.6079   0.1807
  sn4   MG   1       0.2331   0.5406
  sn4    N   1       0.3250   0.2357
  sn4   NA   1       0.3250   0.2357
  sn4   NB   1       0.3250   0.2357
  sn4   NC   1       0.3250   0.2357
  sn4   N2   1       0.3250   0.2357
  sn4   N3   1       0.3250   0.2357
  sn4   N*   1       0.3250   0.2357
  sn4    O   1       0.3105   0.2619
  sn4   OB   1       0.3105   0.2619
  sn4   OW   1       0.3200   0.2229
  sn4   OH   1       0.3158   0.2622
  sn4   O3   1       0.3158   0.2622
  sn4   OS   1       0.3125   0.2357
  sn4   O2   1       0.3105   0.2619
  sn4    P   1       0.3496   0.2556
  sn4    S   1       0.3407   0.2858
  sn4   SH   1       0.3407   0.2858
  sn4   CU   1       0.3325   0.1676
  sn4   FE   1       0.1625   0.0000
  sn4    K   1       0.3993   0.0104
  sn4   Rb   1       0.4258   0.0075
  sn4   Li   1       0.2638   0.0773
  sn4   Zn   1       0.2605   0.0639
  sn4 HW_tip4pew   1       0.1625   0.0000
  sn4 OW_tip4pew   1       0.3207   0.2306
  sn4 HW_tip4p   1       0.1625   0.0000
  sn4 OW_tip4p   1       0.3202   0.2250
  sn4 HW_tip5p   1       0.1625   0.0000
  sn4 OW_tip5p   1       0.3185   0.2286
  sn4 HW_tip4pd   1       0.1625   0.0000
  sn4 OW_tip4pd   1       0.3207   0.2793
  sn4   MW   1       0.1625   0.0000
  sn4 MCH3   1       0.1625   0.0000
  sn4 MNH3   1       0.1625   0.0000
  sn4   c3   1       0.3325   0.1890
  sn4   hc   1       0.2950   0.0716
  sn4    c   1       0.3325   0.1676
  sn4    o   1       0.3105   0.2619
  sn4    n   1       0.3250   0.2357
  sn4   h1   1       0.2861   0.0716
  sn4   ca   1       0.3325   0.1676
  sn4   ha   1       0.2925   0.0700
  sn4   n3   1       0.3250   0.2357
  sn4   hx   1       0.2605   0.0716
  sn4   n4   1       0.3250   0.2357
  sn4   hn   1       0.2160   0.0716
  shn   Br   1       0.0535   0.0000
  shn    C   1       0.2234   0.0509
  shn   C6   1       0.2234   0.0509
  shn   C5   1       0.2234   0.0509
  shn   CA   1       0.2234   0.0509
  shn   CB   1       0.2234   0.0509
  shn   CC   1       0.2234   0.0509
  shn   CK   1       0.2234   0.0509
  shn   CM   1       0.2234   0.0509
  shn   CN   1       0.2234   0.0509
  shn   CQ   1       0.2234   0.0509
  shn   CR   1       0.2234   0.0509
  shn   CT   1       0.2234   0.0574
  shn   C1   1       0.2234   0.0574
  shn   C3   1       0.2234   0.0574
  shn   C4   1       0.2234   0.0574
  shn   C7   1       0.2234   0.0574
  shn   C8   1       0.2234   0.0574
  shn   C9   1       0.2234   0.0574
  shn   CV   1       0.2234   0.0509
  shn   CW   1       0.2234   0.0509
  shn   C*   1       0.2234   0.0509
  shn   C0   1       0.2061   0.1178
  shn    F   1       0.2094   0.0429
  shn    H   1       0.1069   0.0218
  shn   HB   1       0.1069   0.0218
  shn   HC   1       0.1859   0.0218
  shn   H1   1       0.1770   0.0218
  shn   H2   1       0.1681   0.0218
  shn   H3   1       0.1592   0.0218
  shn   HA   1       0.1834   0.0213
  shn   H4   1       0.1790   0.0213
  shn   H5   1       0.1745   0.0213
  shn   HO   1       0.0535   0.0000
  shn   HS   1       0.1069   0.0218
  shn   HW   1       0.0535   0.0000
  shn   HP   1       0.1515   0.0218
  shn    I   1       0.2628   0.1099
  shn   Cl   1       0.2735   0.0549
  shn   Na   1       0.2199   0.0091
  shn   IB   1       0.4989   0.0549
  shn   MG   1       0.1241   0.1643
  shn    N   1       0.2160   0.0716
  shn   NA   1       0.2160   0.0716
  shn   NB   1       0.2160   0.0716
  shn   NC   1       0.2160   0.0716
  shn   N2   1       0.2160   0.0716
  shn   N3   1       0.2160   0.0716
  shn   N*   1       0.2160   0.0716
  shn    O   1       0.2014   0.0796
  shn   OB   1       0.2014   0.0796
  shn   OW   1       0.2110   0.0677
  shn   OH   1       0.2068   0.0797
  shn   O3   1       0.2068   0.0797
  shn   OS   1       0.2035   0.0716
  shn   O2   1       0.2014   0.0796
  shn    P   1       0.2405   0.0777
  shn    S   1       0.2316   0.0868
  shn   SH   1       0.2316   0.0868
  shn   CU   1       0.2234   0.0509
  shn   FE   1       0.0535   0.0000
  shn    K   1       0.2903   0.0031
  shn   Rb   1       0.3168   0.0023
  shn   Li   1       0.1547   0.0235
  shn   Zn   1       0.1515   0.0194
  shn HW_tip4pew   1       0.0535   0.0000
  shn OW_tip4pew   1       0.2117   0.0701
  shn HW_tip4p   1       0.0535   0.0000
  shn OW_tip4p   1       0.2111   0.0684
  shn HW_tip5p   1       0.0535   0.0000
  shn OW_tip5p   1       0.2095   0.0695
  shn HW_tip4pd   1       0.0535   0.0000
  shn OW_tip4pd   1       0.2117   0.0849
  shn   MW   1       0.0535   0.0000
  shn MCH3   1       0.0535   0.0000
  shn MNH3   1       0.0535   0.0000
  shn   c3   1       0.2234   0.0574
  shn   hc   1       0.1859   0.0218
  shn    c   1       0.2234   0.0509
  shn    o   1       0.2014   0.0796
  shn    n   1       0.2160   0.0716
  shn   h1   1       0.1770   0.0218
  shn   ca   1       0.2234   0.0509
  shn   ha   1       0.1834   0.0213
  shn   n3   1       0.2160   0.0716
  shn   hx   1       0.1515   0.0218
  shn   n4   1       0.2160   0.0716
  shn   hn   1       0.1069   0.0218

 [ bondtypes ] 
; i    j  func       b0          kb
 C   C1      1    0.15220  265265.6  ; Amber99Sb-disp
 C1  H1      1    0.10900  284512.0  ; Amber99Sb-disp
 C1  N       1    0.14490  282001.6  ; Amber99Sb-disp
 C1  N3      1    0.14710  307105.6  ; Amber99Sb-disp
 HO  O3      1    0.09600  462750.4  ; Amber99Sb-disp
 C8  O3      1    0.14100  267776.0  ; Amber99Sb-disp
 C8  OH      1    0.14100  267776.0  ; Amber99Sb-disp
 CT  C8      1    0.15260  259408.0  ; Amber99Sb-disp
 CT  C9      1    0.15260  259408.0  ; Amber99Sb-disp
 C9  HC      1    0.10900  284512.0  ; Amber99Sb-disp
 C9  H1      1    0.10900  284512.0  ; Amber99Sb-disp
 C9  S       1    0.18100  189953.6  ; Amber99Sb-disp
 C9  C       1    0.15220  265265.6  ; Amber99Sb-disp
 C8  H1      1    0.10900  284512.0  ; Amber99Sb-disp
 C8  HC      1    0.10900  284512.0  ; Amber99Sb-disp
 OW  HW      1    0.09572  462750.4  ; Amber99Sb-disp
 HW  HW      1    0.15136  462750.4  ; Amber99Sb-disp
 C   C       1    0.15250  259408.0  ; Amber99Sb-disp
 C   CA      1    0.14090  392459.2  ; Amber99Sb-disp
 C   CB      1    0.14190  374049.6  ; Amber99Sb-disp
 C   CM      1    0.14440  343088.0  ; Amber99Sb-disp
 C   CT      1    0.15220  265265.6  ; Amber99Sb-disp
 C   N       1    0.13350  410032.0  ; Amber99Sb-disp
 C   N*      1    0.13830  354803.2  ; Amber99Sb-disp
 C   NA      1    0.13880  349782.4  ; Amber99Sb-disp
 C   NC      1    0.13580  382417.6  ; Amber99Sb-disp
 C   O       1    0.12290  476976.0  ; Amber99Sb-disp
 C   OB      1    0.12290  476976.0  ; Amber99Sb-disp
 C   O2      1    0.12500  548940.8  ; Amber99Sb-disp
 C   OH      1    0.13640  376560.0  ; Amber99Sb-disp
 C   OS      1    0.13230  376560.0  ; Amber99Sb-disp
 C   H4      1    0.10800  307105.6  ; Amber99Sb-disp
 C   H5      1    0.10800  307105.6  ; Amber99Sb-disp
 CA  CA      1    0.14000  392459.2  ; Amber99Sb-disp
 CA  CB      1    0.14040  392459.2  ; Amber99Sb-disp
 CA  CM      1    0.14330  357313.6  ; Amber99Sb-disp
 CA  CN      1    0.14000  392459.2  ; Amber99Sb-disp
 CA  CT      1    0.15100  265265.6  ; Amber99Sb-disp
 CA  HA      1    0.10800  307105.6  ; Amber99Sb-disp
 CA  H4      1    0.10800  307105.6  ; Amber99Sb-disp
 CA  N2      1    0.13400  402500.8  ; Amber99Sb-disp
 CA  NA      1    0.13810  357313.6  ; Amber99Sb-disp
 CA  NC      1    0.13390  404174.4  ; Amber99Sb-disp
 CA  OH      1    0.13640  376560.0  ; Amber99Sb-disp
 CB  CB      1    0.13700  435136.0  ; Amber99Sb-disp
 CB  N*      1    0.13740  364844.8  ; Amber99Sb-disp
 CB  NB      1    0.13910  346435.2  ; Amber99Sb-disp
 CB  NC      1    0.13540  385764.8  ; Amber99Sb-disp
 CK  H5      1    0.10800  307105.6  ; Amber99Sb-disp
 CK  N*      1    0.13710  368192.0  ; Amber99Sb-disp
 CK  NB      1    0.13040  442667.2  ; Amber99Sb-disp
 CM  CM      1    0.13500  459403.2  ; Amber99Sb-disp
 CM  CT      1    0.15100  265265.6  ; Amber99Sb-disp
 CM  HA      1    0.10800  307105.6  ; Amber99Sb-disp
 CM  H4      1    0.10800  307105.6  ; Amber99Sb-disp
 CM  H5      1    0.10800  307105.6  ; Amber99Sb-disp
 CM  N*      1    0.13650  374886.4  ; Amber99Sb-disp
 CM  OS      1    0.12400  401664.0  ; Amber99Sb-disp
 CQ  H5      1    0.10800  307105.6  ; Amber99Sb-disp
 CQ  NC      1    0.13240  420073.6  ; Amber99Sb-disp
 CT  CT      1    0.15260  259408.0  ; Amber99Sb-disp
 CT  HC      1    0.10900  284512.0  ; Amber99Sb-disp
 CT  H1      1    0.10900  284512.0  ; Amber99Sb-disp
 CT  H2      1    0.10900  284512.0  ; Amber99Sb-disp
 CT  H3      1    0.10900  284512.0  ; Amber99Sb-disp
 CT  HP      1    0.10900  284512.0  ; Amber99Sb-disp
 CT  N*      1    0.14750  282001.6  ; Amber99Sb-disp
 CT  N2      1    0.14630  282001.6  ; Amber99Sb-disp
 CT  OH      1    0.14100  267776.0  ; Amber99Sb-disp
 CT  OS      1    0.14100  267776.0  ; Amber99Sb-disp
 C*  HC      1    0.10800  307105.6  ; Amber99Sb-disp
 C*  CB      1    0.14590  324678.4  ; Amber99Sb-disp
 C*  CT      1    0.14950  265265.6  ; Amber99Sb-disp
 C*  CW      1    0.13520  456892.8  ; Amber99Sb-disp
 CB  CN      1    0.14190  374049.6  ; Amber99Sb-disp
 CC  CT      1    0.15040  265265.6  ; Amber99Sb-disp
 CC  CV      1    0.13750  428441.6  ; Amber99Sb-disp
 CC  CW      1    0.13710  433462.4  ; Amber99Sb-disp
 CC  NA      1    0.13850  353129.6  ; Amber99Sb-disp
 CC  NB      1    0.13940  343088.0  ; Amber99Sb-disp
 CN  NA      1    0.13800  358150.4  ; Amber99Sb-disp
 CR  H5      1    0.10800  307105.6  ; Amber99Sb-disp
 CR  NA      1    0.13430  399153.6  ; Amber99Sb-disp
 CR  NB      1    0.13350  408358.4  ; Amber99Sb-disp
 CT  N       1    0.14490  282001.6  ; Amber99Sb-disp
 CT  N3      1    0.14710  307105.6  ; Amber99Sb-disp
 CT  S       1    0.18100  189953.6  ; Amber99Sb-disp
 CT  SH      1    0.18100  198321.6  ; Amber99Sb-disp
 CV  H4      1    0.10800  307105.6  ; Amber99Sb-disp
 CV  NB      1    0.13940  343088.0  ; Amber99Sb-disp
 CW  H4      1    0.10800  307105.6  ; Amber99Sb-disp
 CW  NA      1    0.13810  357313.6  ; Amber99Sb-disp
 O2  P       1    0.14800  439320.0  ; Amber99Sb-disp
 OH  P       1    0.16100  192464.0  ; Amber99Sb-disp
 OS  P       1    0.16100  192464.0  ; Amber99Sb-disp
 H   N2      1    0.10100  363171.2  ; Amber99Sb-disp
 H   N*      1    0.10100  363171.2  ; Amber99Sb-disp
 H   NA      1    0.10100  363171.2  ; Amber99Sb-disp
 H   N       1    0.10100  363171.2  ; Amber99Sb-disp
 HB  N       1    0.10100  363171.2  ; Amber99Sb-disp
 H   N3      1    0.10100  363171.2  ; Amber99Sb-disp
 HO  OH      1    0.09600  462750.4  ; Amber99Sb-disp
 HO  OS      1    0.09600  462750.4  ; Amber99Sb-disp
 HS  SH      1    0.13360  229283.2  ; Amber99Sb-disp
 S   S       1    0.20380  138908.8  ; Amber99Sb-disp
 F   CT      1    0.13800  307105.6  ; Amber99Sb-disp
 Cl  CT      1    0.17660  194137.6  ; Amber99Sb-disp
 Br  CT      1    0.19440  133051.2  ; Amber99Sb-disp
 I   CT      1    0.21660  123846.4  ; Amber99Sb-disp
 F   CA      1    0.13590  323004.8  ; Amber99Sb-disp
 Cl  CA      1    0.17270  161502.4  ; Amber99Sb-disp
 I   CA      1    0.20750  143092.8  ; Amber99Sb-disp
 Br  CA      1    0.18900  143929.6  ; Amber99Sb-disp
 C7  CT      1    0.15260  259408.0  ; Amber99Sb-disp
 C   C7      1    0.15220  265265.6  ; Amber99Sb-disp
 C7  H1      1    0.10900  284512.0  ; Amber99Sb-disp
 C7  HP      1    0.10900  284512.0  ; Amber99Sb-disp
 C7  N       1    0.14490  282001.6  ; Amber99Sb-disp
 C7  N3      1    0.14710  307105.6  ; Amber99Sb-disp
 C3  HC      1    0.10900  284512.0  ; Amber99Sb-disp
 C4  HC      1    0.10900  284512.0  ; Amber99Sb-disp
 CT  C3      1    0.15260  259408.0  ; Amber99Sb-disp
 CT  C4      1    0.15260  259408.0  ; Amber99Sb-disp
 C6  O2      1    0.12500  548940.8  ; Amber99Sb-disp
 CC  O2      1    0.12500  548940.8  ; Amber99Sb-disp
 C5  O       1    0.12290  476976.0  ; Amber99Sb-disp
 C5  N       1    0.13350  410032.0  ; Amber99Sb-disp
 C5  CT      1    0.15220  265265.6  ; Amber99Sb-disp
 C6  CT      1    0.15220  265265.6  ; Amber99Sb-disp
 C1  HP      1    0.10900  284512.0  ; Amber99Sb-disp

 [ constrainttypes ] 
; this section is implemented manually from bond * angle values
; constraints for rigid CH3 groups
 MCH3   CT      2    0.166426
 MCH3   S       2    0.193875
 MCH3   MCH3    2    0.092163
; constraints for rigid NH3 groups
 MNH3   CT      2    0.158254
 MNH3   MNH3    2    0.080229
; angle-derived constraints for OH and SH groups in proteins
; The constraint A-C is calculated from the angle A-B-C and bonds A-B, B-C.
  C     HO      2    0.195074
  CA    HO      2    0.195074
  CT    HO      2    0.194132
  CT    HS      2    0.235935

 [ angletypes ] 
;  i    j    k  func       th0       cth
 C1  C   OH     1    110.000  669.440  ; Amber99Sb-disp
 C1  C   O      1    120.400  669.440  ; Amber99Sb-disp
 C1  C   OB     1    120.400  669.440  ; Amber99Sb-disp
 C1  C   O2     1    117.000  585.760  ; Amber99Sb-disp
 C1  C   N      1    116.600  585.760  ; Amber99Sb-disp
 H1  C1  H1     1    109.500  292.880  ; Amber99Sb-disp
 H1  C1  N      1    109.500  418.400  ; Amber99Sb-disp
 H1  C1  N3     1    109.500  418.400  ; Amber99Sb-disp
 C   C1  H1     1    109.500  418.400  ; Amber99Sb-disp
 C   C1  N      1    110.100  527.184  ; Amber99Sb-disp
 C   C1  N3     1    111.200  669.440  ; Amber99Sb-disp
 C   N   C1     1    121.900  418.400  ; Amber99Sb-disp
 C1  N   H      1    118.040  418.400  ; Amber99Sb-disp
 C1  N   HB     1    118.040  418.400  ; Amber99Sb-disp
 C1  N3  H      1    109.500  418.400  ; Amber99Sb-disp
 H1  C8  H1     1    109.500  292.880  ; Amber99Sb-disp
 H1  C8  O3     1    109.500  418.400  ; Amber99Sb-disp
 CT  C8  O3     1    109.500  418.400  ; Amber99Sb-disp
 C8  O3  HO     1    108.500  460.240  ; Amber99Sb-disp
 H1  C8  OH     1    109.500  418.400  ; Amber99Sb-disp
 CT  C8  OH     1    109.500  418.400  ; Amber99Sb-disp
 C8  OH  HO     1    108.500  460.240  ; Amber99Sb-disp
 CT  C8  CT     1    109.500  334.720  ; Amber99Sb-disp
 CT  C8  H1     1    109.500  418.400  ; Amber99Sb-disp
 CT  C8  HC     1    109.500  418.400  ; Amber99Sb-disp
 CT  C9  H1     1    109.500  418.400  ; Amber99Sb-disp
 H1  C9  S      1    109.500  418.400  ; Amber99Sb-disp
 CT  C9  S      1    114.700  418.400  ; Amber99Sb-disp
 C9  S   CT     1     98.900  518.816  ; Amber99Sb-disp
 CT  C9  HC     1    109.500  418.400  ; Amber99Sb-disp
 CT  C9  CT     1    109.500  334.720  ; Amber99Sb-disp
 C9  CT  CT     1    109.500  334.720  ; Amber99Sb-disp
 HC  C9  HC     1    109.500  292.880  ; Amber99Sb-disp
 C9  CT  HC     1    109.500  418.400  ; Amber99Sb-disp
 C9  CT  H1     1    109.500  418.400  ; Amber99Sb-disp
 H1  C9  H1     1    109.500  292.880  ; Amber99Sb-disp
 C9  C   O      1    120.400  669.440  ; Amber99Sb-disp
 C9  C   O2     1    117.000  585.760  ; Amber99Sb-disp
 C9  C   OH     1    110.000  669.440  ; Amber99Sb-disp
 C9  C   N      1    116.600  585.760  ; Amber99Sb-disp
 C   C9  CT     1    111.100  527.184  ; Amber99Sb-disp
 C   C9  HC     1    109.500  418.400  ; Amber99Sb-disp
 C9  CT  N2     1    111.200  669.440  ; Amber99Sb-disp
 C8  CT  N      1    109.700  669.440  ; Amber99Sb-disp
 C   CT  C8     1    111.100  527.184  ; Amber99Sb-disp
 C8  CT  HC     1    109.500  418.400  ; Amber99Sb-disp
 C8  CT  H1     1    109.500  418.400  ; Amber99Sb-disp
 H4  C   N      1    120.000  418.400  ; Amber99Sb-disp
 HW  OW  HW     1    104.520  836.800  ; Amber99Sb-disp
 HW  HW  OW     1    127.740    0.000  ; Amber99Sb-disp
 C   C   O      1    120.000  669.440  ; Amber99Sb-disp
 C   C   OH     1    120.000  669.440  ; Amber99Sb-disp
 CA  C   CA     1    120.000  527.184  ; Amber99Sb-disp
 CA  C   OH     1    120.000  585.760  ; Amber99Sb-disp
 CB  C   NA     1    111.300  585.760  ; Amber99Sb-disp
 CB  C   O      1    128.800  669.440  ; Amber99Sb-disp
 CM  C   NA     1    114.100  585.760  ; Amber99Sb-disp
 CM  C   O      1    125.300  669.440  ; Amber99Sb-disp
 CT  C   O      1    120.400  669.440  ; Amber99Sb-disp
 CT  C   OB     1    120.400  669.440  ; Amber99Sb-disp
 CT  C   O2     1    117.000  585.760  ; Amber99Sb-disp
 CT  C   N      1    116.600  585.760  ; Amber99Sb-disp
 CT  C   CT     1    117.000  527.184  ; Amber99Sb-disp
 CT  C   OS     1    115.000  669.440  ; Amber99Sb-disp
 CT  C   OH     1    110.000  669.440  ; Amber99Sb-disp
 N*  C   NA     1    115.400  585.760  ; Amber99Sb-disp
 N*  C   NC     1    118.600  585.760  ; Amber99Sb-disp
 N*  C   O      1    120.900  669.440  ; Amber99Sb-disp
 NA  C   O      1    120.600  669.440  ; Amber99Sb-disp
 NC  C   O      1    122.500  669.440  ; Amber99Sb-disp
 N   C   O      1    122.900  669.440  ; Amber99Sb-disp
 N   C   OB     1    122.900  669.440  ; Amber99Sb-disp
 O   C   O      1    126.000  669.440  ; Amber99Sb-disp
 O   C   OH     1    120.000  669.440  ; Amber99Sb-disp
 O   C   OS     1    125.000  669.440  ; Amber99Sb-disp
 O2  C   O2     1    126.000  669.440  ; Amber99Sb-disp
 H4  C   C      1    120.000  418.400  ; Amber99Sb-disp
 H4  C   CM     1    115.000  418.400  ; Amber99Sb-disp
 H4  C   CT     1    115.000  418.400  ; Amber99Sb-disp
 H4  C   O      1    120.000  418.400  ; Amber99Sb-disp
 H4  C   OH     1    120.000  418.400  ; Amber99Sb-disp
 H5  C   N      1    120.000  418.400  ; Amber99Sb-disp
 H5  C   O      1    119.000  418.400  ; Amber99Sb-disp
 H5  C   OH     1    107.000  418.400  ; Amber99Sb-disp
 H5  C   OS     1    107.000  418.400  ; Amber99Sb-disp
 C   CA  CA     1    120.000  527.184  ; Amber99Sb-disp
 C   CA  HA     1    120.000  418.400  ; Amber99Sb-disp
 CA  CA  CA     1    120.000  527.184  ; Amber99Sb-disp
 CA  CA  CB     1    120.000  527.184  ; Amber99Sb-disp
 CA  CA  CT     1    120.000  585.760  ; Amber99Sb-disp
 CA  CA  HA     1    120.000  418.400  ; Amber99Sb-disp
 CA  CA  H4     1    120.000  418.400  ; Amber99Sb-disp
 CA  CA  OH     1    120.000  585.760  ; Amber99Sb-disp
 CA  CA  CN     1    120.000  527.184  ; Amber99Sb-disp
 CB  CA  HA     1    120.000  418.400  ; Amber99Sb-disp
 CB  CA  H4     1    120.000  418.400  ; Amber99Sb-disp
 CB  CA  N2     1    123.500  585.760  ; Amber99Sb-disp
 CB  CA  NC     1    117.300  585.760  ; Amber99Sb-disp
 CM  CA  N2     1    120.100  585.760  ; Amber99Sb-disp
 CM  CA  NC     1    121.500  585.760  ; Amber99Sb-disp
 CN  CA  HA     1    120.000  418.400  ; Amber99Sb-disp
 NA  CA  NC     1    123.300  585.760  ; Amber99Sb-disp
 N2  CA  NA     1    116.000  585.760  ; Amber99Sb-disp
 N2  CA  NC     1    119.300  585.760  ; Amber99Sb-disp
 N2  CA  N2     1    120.000  585.760  ; Amber99Sb-disp
 F   CA  CA     1    121.000  585.760  ; Amber99Sb-disp
 Cl  CA  CA     1    118.800  585.760  ; Amber99Sb-disp
 I   CA  CA     1    118.800  585.760  ; Amber99Sb-disp
 C   CB  CB     1    119.200  527.184  ; Amber99Sb-disp
 C   CB  NB     1    130.000  585.760  ; Amber99Sb-disp
 CA  CB  CB     1    117.300  527.184  ; Amber99Sb-disp
 CA  CB  NB     1    132.400  585.760  ; Amber99Sb-disp
 CB  CB  N*     1    106.200  585.760  ; Amber99Sb-disp
 CB  CB  NB     1    110.400  585.760  ; Amber99Sb-disp
 CB  CB  NC     1    127.700  585.760  ; Amber99Sb-disp
 C*  CB  CA     1    134.900  527.184  ; Amber99Sb-disp
 C*  CB  CN     1    108.800  527.184  ; Amber99Sb-disp
 CA  CB  CN     1    116.200  527.184  ; Amber99Sb-disp
 N*  CB  NC     1    126.200  585.760  ; Amber99Sb-disp
 H5  CK  N*     1    123.050  418.400  ; Amber99Sb-disp
 H5  CK  NB     1    123.050  418.400  ; Amber99Sb-disp
 N*  CK  NB     1    113.900  585.760  ; Amber99Sb-disp
 C   CM  CM     1    120.700  527.184  ; Amber99Sb-disp
 C   CM  CT     1    119.700  585.760  ; Amber99Sb-disp
 C   CM  HA     1    119.700  418.400  ; Amber99Sb-disp
 C   CM  H4     1    119.700  418.400  ; Amber99Sb-disp
 CA  CM  CM     1    117.000  527.184  ; Amber99Sb-disp
 CA  CM  HA     1    123.300  418.400  ; Amber99Sb-disp
 CA  CM  H4     1    123.300  418.400  ; Amber99Sb-disp
 CM  CM  CT     1    119.700  585.760  ; Amber99Sb-disp
 CM  CM  HA     1    119.700  418.400  ; Amber99Sb-disp
 CM  CM  H4     1    119.700  418.400  ; Amber99Sb-disp
 CM  CM  N*     1    121.200  585.760  ; Amber99Sb-disp
 CM  CM  OS     1    125.000  669.440  ; Amber99Sb-disp
 H4  CM  N*     1    119.100  418.400  ; Amber99Sb-disp
 H4  CM  OS     1    113.000  418.400  ; Amber99Sb-disp
 HA  CM  HA     1    120.000  292.880  ; Amber99Sb-disp
 HA  CM  CT     1    120.000  418.400  ; Amber99Sb-disp
 NC  CQ  NC     1    129.100  585.760  ; Amber99Sb-disp
 H5  CQ  NC     1    115.450  418.400  ; Amber99Sb-disp
 H1  CT  H1     1    109.500  292.880  ; Amber99Sb-disp
 H1  CT  N*     1    109.500  418.400  ; Amber99Sb-disp
 H1  CT  OH     1    109.500  418.400  ; Amber99Sb-disp
 H1  CT  OS     1    109.500  418.400  ; Amber99Sb-disp
 H1  CT  CM     1    109.500  418.400  ; Amber99Sb-disp
 H1  CT  N      1    109.500  418.400  ; Amber99Sb-disp
 H1  CT  S      1    109.500  418.400  ; Amber99Sb-disp
 H1  CT  SH     1    109.500  418.400  ; Amber99Sb-disp
 H1  CT  N2     1    109.500  418.400  ; Amber99Sb-disp
 H2  CT  H2     1    109.500  292.880  ; Amber99Sb-disp
 H2  CT  N*     1    109.500  418.400  ; Amber99Sb-disp
 H2  CT  OS     1    109.500  418.400  ; Amber99Sb-disp
 HP  CT  HP     1    109.500  292.880  ; Amber99Sb-disp
 HP  CT  N3     1    109.500  418.400  ; Amber99Sb-disp
 HC  CT  HC     1    109.500  292.880  ; Amber99Sb-disp
 HC  CT  CM     1    109.500  418.400  ; Amber99Sb-disp
 C   CT  H1     1    109.500  418.400  ; Amber99Sb-disp
 C   CT  HP     1    109.500  418.400  ; Amber99Sb-disp
 C   CT  HC     1    109.500  418.400  ; Amber99Sb-disp
 C   CT  N      1    110.100  527.184  ; Amber99Sb-disp
 C   CT  N3     1    111.200  669.440  ; Amber99Sb-disp
 C   CT  CT     1    111.100  527.184  ; Amber99Sb-disp
 C   CT  OS     1    109.500  502.080  ; Amber99Sb-disp
 CA  CT  HC     1    109.500  418.400  ; Amber99Sb-disp
 CC  CT  CT     1    113.100  527.184  ; Amber99Sb-disp
 CC  CT  HC     1    109.500  418.400  ; Amber99Sb-disp
 CM  CT  CT     1    111.000  527.184  ; Amber99Sb-disp
 CM  CT  OS     1    109.500  418.400  ; Amber99Sb-disp
 CT  CT  CT     1    109.500  334.720  ; Amber99Sb-disp
 CT  CT  HC     1    109.500  418.400  ; Amber99Sb-disp
 CT  CT  H1     1    109.500  418.400  ; Amber99Sb-disp
 CT  CT  H2     1    109.500  418.400  ; Amber99Sb-disp
 CT  CT  HP     1    109.500  418.400  ; Amber99Sb-disp
 CT  CT  N*     1    109.500  418.400  ; Amber99Sb-disp
 CT  CT  OH     1    109.500  418.400  ; Amber99Sb-disp
 CT  CT  OS     1    109.500  418.400  ; Amber99Sb-disp
 CT  CT  S      1    114.700  418.400  ; Amber99Sb-disp
 CT  CT  SH     1    108.600  418.400  ; Amber99Sb-disp
 CT  CT  CA     1    114.000  527.184  ; Amber99Sb-disp
 CT  CT  N2     1    111.200  669.440  ; Amber99Sb-disp
 CT  CT  N      1    109.700  669.440  ; Amber99Sb-disp
 CT  CT  N3     1    111.200  669.440  ; Amber99Sb-disp
 C*  CT  CT     1    115.600  527.184  ; Amber99Sb-disp
 C*  CT  HC     1    109.500  418.400  ; Amber99Sb-disp
 OS  CT  OS     1    101.000 1338.880  ; Amber99Sb-disp
 OS  CT  N*     1    109.500  418.400  ; Amber99Sb-disp
 F   CT  F      1    109.100  644.336  ; Amber99Sb-disp
 F   CT  H1     1    109.500  418.400  ; Amber99Sb-disp
 F   CT  CT     1    109.000  418.400  ; Amber99Sb-disp
 F   CT  H2     1    109.500  418.400  ; Amber99Sb-disp
 Cl  CT  CT     1    108.500  418.400  ; Amber99Sb-disp
 Cl  CT  H1     1    108.500  418.400  ; Amber99Sb-disp
 I   CT  CT     1    106.000  418.400  ; Amber99Sb-disp
 CT  CC  NA     1    120.000  585.760  ; Amber99Sb-disp
 CT  CC  CV     1    120.000  585.760  ; Amber99Sb-disp
 CT  CC  NB     1    120.000  585.760  ; Amber99Sb-disp
 CV  CC  NA     1    120.000  585.760  ; Amber99Sb-disp
 CW  CC  NA     1    120.000  585.760  ; Amber99Sb-disp
 CW  CC  NB     1    120.000  585.760  ; Amber99Sb-disp
 CT  CC  CW     1    120.000  585.760  ; Amber99Sb-disp
 H5  CR  NA     1    120.000  418.400  ; Amber99Sb-disp
 H5  CR  NB     1    120.000  418.400  ; Amber99Sb-disp
 NA  CR  NA     1    120.000  585.760  ; Amber99Sb-disp
 NA  CR  NB     1    120.000  585.760  ; Amber99Sb-disp
 CC  CV  H4     1    120.000  418.400  ; Amber99Sb-disp
 CC  CV  NB     1    120.000  585.760  ; Amber99Sb-disp
 H4  CV  NB     1    120.000  418.400  ; Amber99Sb-disp
 CC  CW  H4     1    120.000  418.400  ; Amber99Sb-disp
 CC  CW  NA     1    120.000  585.760  ; Amber99Sb-disp
 C*  CW  H4     1    120.000  418.400  ; Amber99Sb-disp
 C*  CW  NA     1    108.700  585.760  ; Amber99Sb-disp
 H4  CW  NA     1    120.000  418.400  ; Amber99Sb-disp
 CB  C*  CT     1    128.600  585.760  ; Amber99Sb-disp
 CB  C*  CW     1    106.400  527.184  ; Amber99Sb-disp
 CT  C*  CW     1    125.000  585.760  ; Amber99Sb-disp
 CA  CN  CB     1    122.700  527.184  ; Amber99Sb-disp
 CA  CN  NA     1    132.800  585.760  ; Amber99Sb-disp
 CB  CN  NA     1    104.400  585.760  ; Amber99Sb-disp
 C   N   CT     1    121.900  418.400  ; Amber99Sb-disp
 C   N   H      1    120.000  418.400  ; Amber99Sb-disp
 C   N   HB     1    120.000  418.400  ; Amber99Sb-disp
 CT  N   H      1    118.040  418.400  ; Amber99Sb-disp
 CT  N   HB     1    118.040  418.400  ; Amber99Sb-disp
 CT  N   CT     1    118.000  418.400  ; Amber99Sb-disp
 H   N   H      1    120.000  292.880  ; Amber99Sb-disp
 C   N*  CM     1    121.600  585.760  ; Amber99Sb-disp
 C   N*  CT     1    117.600  585.760  ; Amber99Sb-disp
 C   N*  H      1    119.200  418.400  ; Amber99Sb-disp
 CB  N*  CK     1    105.400  585.760  ; Amber99Sb-disp
 CB  N*  CT     1    125.800  585.760  ; Amber99Sb-disp
 CB  N*  H      1    125.800  418.400  ; Amber99Sb-disp
 CK  N*  CT     1    128.800  585.760  ; Amber99Sb-disp
 CK  N*  H      1    128.800  418.400  ; Amber99Sb-disp
 CM  N*  CT     1    121.200  585.760  ; Amber99Sb-disp
 CM  N*  H      1    121.200  418.400  ; Amber99Sb-disp
 CA  N2  H      1    120.000  418.400  ; Amber99Sb-disp
 CA  N2  CT     1    123.200  418.400  ; Amber99Sb-disp
 CT  N2  H      1    118.400  418.400  ; Amber99Sb-disp
 H   N2  H      1    120.000  292.880  ; Amber99Sb-disp
 CT  N3  H      1    109.500  418.400  ; Amber99Sb-disp
 CT  N3  CT     1    109.500  418.400  ; Amber99Sb-disp
 H   N3  H      1    109.500  292.880  ; Amber99Sb-disp
 C   NA  C      1    126.400  585.760  ; Amber99Sb-disp
 C   NA  CA     1    125.200  585.760  ; Amber99Sb-disp
 C   NA  H      1    116.800  418.400  ; Amber99Sb-disp
 CA  NA  H      1    118.000  418.400  ; Amber99Sb-disp
 CC  NA  CR     1    120.000  585.760  ; Amber99Sb-disp
 CC  NA  H      1    120.000  418.400  ; Amber99Sb-disp
 CR  NA  CW     1    120.000  585.760  ; Amber99Sb-disp
 CR  NA  H      1    120.000  418.400  ; Amber99Sb-disp
 CW  NA  H      1    120.000  418.400  ; Amber99Sb-disp
 CN  NA  CW     1    111.600  585.760  ; Amber99Sb-disp
 CN  NA  H      1    123.100  418.400  ; Amber99Sb-disp
 CB  NB  CK     1    103.800  585.760  ; Amber99Sb-disp
 CC  NB  CR     1    117.000  585.760  ; Amber99Sb-disp
 CR  NB  CV     1    117.000  585.760  ; Amber99Sb-disp
 C   NC  CA     1    120.500  585.760  ; Amber99Sb-disp
 CA  NC  CB     1    112.200  585.760  ; Amber99Sb-disp
 CA  NC  CQ     1    118.600  585.760  ; Amber99Sb-disp
 CB  NC  CQ     1    111.000  585.760  ; Amber99Sb-disp
 C   OH  HO     1    113.000  418.400  ; Amber99Sb-disp
 CA  OH  HO     1    113.000  418.400  ; Amber99Sb-disp
 CT  OH  HO     1    108.500  460.240  ; Amber99Sb-disp
 HO  OH  P      1    108.500  376.560  ; Amber99Sb-disp
 C   OS  CT     1    117.000  502.080  ; Amber99Sb-disp
 CM  OS  CT     1    117.000  502.080  ; Amber99Sb-disp
 CT  OS  CT     1    109.500  502.080  ; Amber99Sb-disp
 CT  OS  P      1    120.500  836.800  ; Amber99Sb-disp
 P   OS  P      1    120.500  836.800  ; Amber99Sb-disp
 O2  P   OH     1    108.230  376.560  ; Amber99Sb-disp
 O2  P   O2     1    119.900 1171.520  ; Amber99Sb-disp
 O2  P   OS     1    108.230  836.800  ; Amber99Sb-disp
 OH  P   OS     1    102.600  376.560  ; Amber99Sb-disp
 OS  P   OS     1    102.600  376.560  ; Amber99Sb-disp
 CT  S   CT     1     98.900  518.816  ; Amber99Sb-disp
 CT  S   S      1    103.700  569.024  ; Amber99Sb-disp
 CT  SH  HS     1     96.000  359.824  ; Amber99Sb-disp
 HS  SH  HS     1     92.070  292.880  ; Amber99Sb-disp
 C7  C   O      1    120.400  669.440  ; Amber99Sb-disp
 C7  C   OB     1    120.400  669.440  ; Amber99Sb-disp
 C7  C   O2     1    117.000  585.760  ; Amber99Sb-disp
 C7  C   N      1    116.600  585.760  ; Amber99Sb-disp
 H1  C7  H1     1    109.500  292.880  ; Amber99Sb-disp
 H1  C7  N      1    109.500  418.400  ; Amber99Sb-disp
 HP  C7  HP     1    109.500  292.880  ; Amber99Sb-disp
 HP  C7  N3     1    109.500  418.400  ; Amber99Sb-disp
 C   C7  H1     1    109.500  418.400  ; Amber99Sb-disp
 C   C7  HP     1    109.500  418.400  ; Amber99Sb-disp
 C   C7  N      1    110.100  527.184  ; Amber99Sb-disp
 C   C7  N3     1    111.200  669.440  ; Amber99Sb-disp
 C   N   C7     1    121.900  418.400  ; Amber99Sb-disp
 C7  N   H      1    118.040  418.400  ; Amber99Sb-disp
 C7  N   HB     1    118.040  418.400  ; Amber99Sb-disp
 C7  N3  H      1    109.500  418.400  ; Amber99Sb-disp
 C7  N   CT     1    118.000  418.400  ; Amber99Sb-disp
 C7  N3  CT     1    109.500  418.400  ; Amber99Sb-disp
 CT  C7  N3     1    111.200  669.440  ; Amber99Sb-disp
 CT  C7  HP     1    109.500  418.400  ; Amber99Sb-disp
 C7  CT  CT     1    109.500  334.720  ; Amber99Sb-disp
 C7  CT  HC     1    109.500  418.400  ; Amber99Sb-disp
 CT  C7  N      1    109.700  669.440  ; Amber99Sb-disp
 C   C7  CT     1    111.100  527.184  ; Amber99Sb-disp
 CT  C7  H1     1    109.500  418.400  ; Amber99Sb-disp
 CT  C5  O      1    120.400  669.440  ; Amber99Sb-disp
 CT  C6  O2     1    117.000  585.760  ; Amber99Sb-disp
 CT  CC  O2     1    117.000  585.760  ; Amber99Sb-disp
 CT  C5  N      1    116.600  585.760  ; Amber99Sb-disp
 N   C5  O      1    122.900  669.440  ; Amber99Sb-disp
 O2  C6  O2     1    126.000  669.440  ; Amber99Sb-disp
 O2  CC  O2     1    126.000  669.440  ; Amber99Sb-disp
 HC  C3  HC     1    109.500  292.880  ; Amber99Sb-disp
 C5  CT  HC     1    109.500  418.400  ; Amber99Sb-disp
 C6  CT  HC     1    109.500  418.400  ; Amber99Sb-disp
 C5  CT  CT     1    111.100  527.184  ; Amber99Sb-disp
 C6  CT  CT     1    111.100  527.184  ; Amber99Sb-disp
 CT  C4  CT     1    109.500  334.720  ; Amber99Sb-disp
 CT  CT  C4     1    109.500  334.720  ; Amber99Sb-disp
 C4  CT  HC     1    109.500  418.400  ; Amber99Sb-disp
 CT  C4  HC     1    109.500  418.400  ; Amber99Sb-disp
 CT  CT  C3     1    109.500  334.720  ; Amber99Sb-disp
 CT  C3  HC     1    109.500  418.400  ; Amber99Sb-disp
 C3  CT  HC     1    109.500  418.400  ; Amber99Sb-disp
 C5  N   H      1    120.000  418.400  ; Amber99Sb-disp
 C5  N   HB     1    120.000  418.400  ; Amber99Sb-disp
 HP  C1  HP     1    109.500  292.880  ; Amber99Sb-disp
 HP  C1  N3     1    109.500  418.400  ; Amber99Sb-disp
 C   C1  HP     1    109.500  418.400  ; Amber99Sb-disp
 CT  C1  HP     1    109.500  418.400  ; Amber99Sb-disp

 [ dihedraltypes ] 
;i  j   k  l	 func      phase      kd      pn
 C   C1  N   O     4     180.0      4.60240     2  ; Amber99Sb-disp
 C   C1  N   OB    4     180.0      4.60240     2  ; Amber99Sb-disp
 C   C1  N   H     4     180.0      4.60240     2  ; Amber99Sb-disp
 C   C1  N   HB    4     180.0      4.60240     2  ; Amber99Sb-disp
 C9  O   C   OH    4     180.0     43.93200     2  ; Amber99Sb-disp
 CB  CK  N*  CT    4     180.0      4.18400     2  ; Amber99Sb-disp
 C   CM  N*  CT    4     180.0      4.18400     2  ; Amber99Sb-disp
 CT  O   C   OH    4     180.0     43.93200     2  ; Amber99Sb-disp
 CT  CV  CC  NA    4     180.0      4.60240     2  ; Amber99Sb-disp
 CT  CW  CC  NB    4     180.0      4.60240     2  ; Amber99Sb-disp
 CT  CC  CW  NB    4     180.0      4.60240     2  ; Amber99Sb-disp
 CT  CW  CC  NA    4     180.0      4.60240     2  ; Amber99Sb-disp
 CB  CT  C*  CW    4     180.0      4.60240     2  ; Amber99Sb-disp
 CA  CA  CA  CT    4     180.0      4.60240     2  ; Amber99Sb-disp
 C   CM  CM  CT    4     180.0      4.60240     2  ; Amber99Sb-disp
 CM  N2  CA  NC    4     180.0      4.60240     2  ; Amber99Sb-disp
 CB  N2  CA  NC    4     180.0      4.60240     2  ; Amber99Sb-disp
 N2  NA  CA  NC    4     180.0      4.60240     2  ; Amber99Sb-disp
 CA  CA  C   OH    4     180.0      4.60240     2  ; Amber99Sb-disp
 CA  CA  CA  OH    4     180.0      4.60240     2  ; Amber99Sb-disp
 H5  O   C   OH    4     180.0      4.60240     2  ; Amber99Sb-disp
 H5  O   C   OS    4     180.0      4.60240     2  ; Amber99Sb-disp
 CM  CT  CM  HA    4     180.0      4.60240     2  ; Amber99Sb-disp
 Br  CA  CA  CA    4     180.0      4.60240     2  ; Amber99Sb-disp
 CM  H4  C   O     4     180.0      4.60240     2  ; Amber99Sb-disp
 C   CT  N   H     4     180.0      4.60240     2  ; Amber99Sb-disp
 C   CT  N   HB    4     180.0      4.60240     2  ; Amber99Sb-disp
 C   CT  N   O     4     180.0      4.60240     2  ; Amber99Sb-disp
 C   C7  N   O     4     180.0      4.60240     2  ; Amber99Sb-disp
 C   CT  N   OB    4     180.0      4.60240     2  ; Amber99Sb-disp
 C   C7  N   OB    4     180.0      4.60240     2  ; Amber99Sb-disp
 C   C7  N   H     4     180.0      4.60240     2  ; Amber99Sb-disp
 C   C7  N   HB    4     180.0      4.60240     2  ; Amber99Sb-disp
 C5  CT  N   O     4     180.0      4.60240     2  ; Amber99Sb-disp
 C5  CT  N   OB    4     180.0      4.60240     2  ; Amber99Sb-disp
 C5  CT  N   H     4     180.0      4.60240     2  ; Amber99Sb-disp
 C5  CT  N   HB    4     180.0      4.60240     2  ; Amber99Sb-disp
 X   CT  N   C1    4     180.0      4.18400     2  ; Amber99Sb-disp
 X   CT  N   C7    4     180.0      4.18400     2  ; Amber99Sb-disp
 X   O2  C6  O2    4     180.0     43.93200     2  ; Amber99Sb-disp
 X   O2  C   O2    4     180.0     43.93200     2  ; Amber99Sb-disp
 X   N2  CA  N2    4     180.0     43.93200     2  ; Amber99Sb-disp
 X   CT  N   CT    4     180.0      4.18400     2  ; Amber99Sb-disp
 X   X   C   O     4     180.0     43.93200     2  ; Amber99Sb-disp
 X   X   C   OB    4     180.0     43.93200     2  ; Amber99Sb-disp
 X   X   N   H     4     180.0      4.18400     2  ; Amber99Sb-disp
 X   X   N2  H     4     180.0      4.18400     2  ; Amber99Sb-disp
 X   X   NA  H     4     180.0      4.18400     2  ; Amber99Sb-disp
 X   X   CA  HA    4     180.0      4.60240     2  ; Amber99Sb-disp
 X   X   CW  H4    4     180.0      4.60240     2  ; Amber99Sb-disp
 X   X   CR  H5    4     180.0      4.60240     2  ; Amber99Sb-disp
 X   X   CV  H4    4     180.0      4.60240     2  ; Amber99Sb-disp
 X   X   CQ  H5    4     180.0      4.60240     2  ; Amber99Sb-disp
 X   X   CK  H5    4     180.0      4.60240     2  ; Amber99Sb-disp
 X   X   CM  H4    4     180.0      4.60240     2  ; Amber99Sb-disp
 X   X   CM  HA    4     180.0      4.60240     2  ; Amber99Sb-disp
 X   X   CA  H4    4     180.0      4.60240     2  ; Amber99Sb-disp
 X   X   CA  H5    4     180.0      4.60240     2  ; Amber99Sb-disp
 X   X   C5  O     4     180.0     43.93200     2  ; Amber99Sb-disp
;i   j   k   l	   func	
 C8  CT  C   N     9       0.0      0.83680     1  ; Amber99Sb-disp
 C8  CT  C   N     9       0.0      0.83680     2  ; Amber99Sb-disp
 C8  CT  C   N     9       0.0      1.67360     3  ; Amber99Sb-disp
 C8  CT  N   C     9       0.0      8.36800     1  ; Amber99Sb-disp
 C8  CT  N   C     9       0.0      8.36800     2  ; Amber99Sb-disp
 C8  CT  N   C     9       0.0      1.67360     3  ; Amber99Sb-disp
 C   CT  C8  O3    9     180.0      4.18400     1  ; Amber99Sb-disp
 C   CT  C8  OH    9     180.0      3.76560     1  ; Amber99Sb-disp
 C   CT  CT  C4    9       0.0      2.39074     1  ; Amber99Sb-disp
 C   CT  CT  C4    9     180.0      1.49913     2  ; Amber99Sb-disp
 C   CT  CT  C4    9       0.0      0.56400     3  ; Amber99Sb-disp
 C   CT  CT  C5    9       0.0      0.71421     1  ; Amber99Sb-disp
 C   CT  CT  C5    9     180.0      2.49241     2  ; Amber99Sb-disp
 C   CT  CT  C5    9       0.0      0.49580     3  ; Amber99Sb-disp
 C   CT  CT  C5    9     180.0      1.74556     4  ; Amber99Sb-disp
 C   CT  CT  C5    9       0.0      0.43597     5  ; Amber99Sb-disp
 C   CT  CT  C5    9     180.0      0.42142     6  ; Amber99Sb-disp
 C   CT  CT  C*    9       0.0      1.21336     1  ; Amber99Sb-disp
 C   CT  CT  C9    9       0.0      1.25520     1  ; Amber99Sb-disp
 C   CT  CT  CA    9       0.0      2.17568     1  ; Amber99Sb-disp
 C   CT  CT  CC    9       0.0      2.92880     1  ; Amber99Sb-disp
 C   CT  CT  SH    9     180.0      0.66944     1  ; Amber99Sb-disp
 Cl  CT  CT  Cl    9     180.0      1.88280     1  ; Amber99Sb-disp
 CM  CM  C   O     9     180.0      9.10020     2  ; Amber99Sb-disp
 CM  CM  C   O     9       0.0      1.25520     3  ; Amber99Sb-disp
 C   N   C1  C     9       0.0      0.35267     1  ; Amber99Sb-disp
 C   N   C1  C     9       0.0      1.59541     2  ; Amber99Sb-disp
 C   N   C1  C     9     180.0      0.08381     3  ; Amber99Sb-disp
 C   N   C1  C     9       0.0      0.32396     4  ; Amber99Sb-disp
 C   N   C7  C     9       0.0      1.12968     2  ; Amber99Sb-disp
 C   N   C7  C     9       0.0      1.75728     3  ; Amber99Sb-disp
 C   N   CT  C     9     180.0      0.14226     1  ; Amber99Sb-disp
 C   N   CT  C     9       0.0      1.40164     2  ; Amber99Sb-disp
 C   N   CT  C     9       0.0      2.27610     3  ; Amber99Sb-disp
 C   N   CT  C     9       0.0      0.33472     4  ; Amber99Sb-disp
 ;CT  C4  CT  CT    9     180.0      0.83680     1  ; Amber99Sb-disp
 ;CT  C4  CT  CT    9     180.0      1.04600     2  ; Amber99Sb-disp
 ;CT  C4  CT  CT    9       0.0      0.75312     3  ; Amber99Sb-disp
 CT  C7  C   N     9       0.0      0.83680     1  ; Amber99Sb-disp
 CT  C7  C   N     9       0.0      0.83680     2  ; Amber99Sb-disp
 CT  C7  C   N     9       0.0      1.67360     3  ; Amber99Sb-disp
 CT  C7  N   C     9       0.0      8.36800     1  ; Amber99Sb-disp
 CT  C7  N   C     9       0.0      8.36800     2  ; Amber99Sb-disp
 CT  C7  N   C     9       0.0      1.67360     3  ; Amber99Sb-disp
 CT  C9  C   O2    9     180.0      2.51040     2  ; Amber99Sb-disp
 CT  C9  C   O     9     180.0      2.51040     2  ; Amber99Sb-disp
 CT  C9  C   OB    9     180.0      2.51040     2  ; Amber99Sb-disp
 CT  CM  CM  CT    9     180.0     27.82360     2  ; Amber99Sb-disp
 CT  CM  CM  CT    9     180.0      7.94960     1  ; Amber99Sb-disp
 CT  CT  C4  CT    9       0.0      0.62760     3  ; Amber99Sb-disp
 CT  CT  C5  O     9     180.0      4.18400     1  ; Amber99Sb-disp
 CT  CT  C6  O2    9     180.0      0.77822     4  ; Amber99Sb-disp
 CT  CT  C6  O2    9     180.0      1.48114     6  ; Amber99Sb-disp
 CT  CT  C6  O2    9     180.0      3.65263     2  ; Amber99Sb-disp
 CT  CT  C*  CW    9       0.0      5.02080     1  ; Amber99Sb-disp
 CT  CT  C   N     9       0.0      0.83680     1  ; Amber99Sb-disp
 CT  CT  C   N     9       0.0      0.83680     2  ; Amber99Sb-disp
 CT  CT  C   N     9       0.0      1.67360     3  ; Amber99Sb-disp
 CT  CT  CT  C3    9       0.0      0.62760     3  ; Amber99Sb-disp
 CT  CT  CT  C7    9       0.0      0.75312     3  ; Amber99Sb-disp
 CT  CT  CT  C7    9     180.0      0.83680     1  ; Amber99Sb-disp
 CT  CT  CT  C7    9     180.0      1.04600     2  ; Amber99Sb-disp
 CT  CT  CT  CT    9       0.0      0.62760     3  ; Amber99Sb-disp
 CT  CT  N   C     9       0.0      1.67360     3  ; Amber99Sb-disp
 CT  CT  N   C     9       0.0      8.36800     1  ; Amber99Sb-disp
 CT  CT  N   C     9       0.0      8.36800     2  ; Amber99Sb-disp
 CT  CT  OS  C     9       0.0      1.60247     3  ; Amber99Sb-disp
 CT  CT  OS  C     9     180.0      3.34720     1  ; Amber99Sb-disp
 CT  CT  OS  CT    9       0.0      1.60247     3  ; Amber99Sb-disp
 CT  CT  OS  CT    9     180.0      0.41840     2  ; Amber99Sb-disp
 CT  CT  SH  HS    9       0.0      0.83680     3  ; Amber99Sb-disp
 CT  CT  SH  HS    9       0.0      2.09200     2  ; Amber99Sb-disp
 CT  OS  CT  N*    9       0.0      1.60247     3  ; Amber99Sb-disp
 CT  OS  CT  N*    9       0.0      2.71960     2  ; Amber99Sb-disp
 CT  OS  CT  OS    9       0.0      0.41840     3  ; Amber99Sb-disp
 CT  OS  CT  OS    9     180.0      3.55640     2  ; Amber99Sb-disp
 CT  OS  CT  OS    9     180.0      5.64840     1  ; Amber99Sb-disp
 CT  S   S   CT    9       0.0     14.64400     2  ; Amber99Sb-disp
 CT  S   S   CT    9       0.0      2.51040     3  ; Amber99Sb-disp
 F   CT  CT  F     9     180.0      5.02080     1  ; Amber99Sb-disp
 H1  C1  C   O     9       0.0      3.34720     1  ; Amber99Sb-disp
 H1  C1  C   O     9     180.0      0.33472     3  ; Amber99Sb-disp
 H1  C7  C   O     9       0.0      3.34720     1  ; Amber99Sb-disp
 H1  C7  C   O     9     180.0      0.33472     3  ; Amber99Sb-disp
 H1  CT  C   O     9       0.0      3.34720     1  ; Amber99Sb-disp
 H1  CT  C   O     9     180.0      0.33472     3  ; Amber99Sb-disp
 H1  C1  C   OB    9       0.0      3.34720     1  ; Amber99Sb-disp
 H1  C1  C   OB    9     180.0      0.33472     3  ; Amber99Sb-disp
 H1  C7  C   OB    9       0.0      3.34720     1  ; Amber99Sb-disp
 H1  C7  C   OB    9     180.0      0.33472     3  ; Amber99Sb-disp
 H1  CT  C   OB    9       0.0      3.34720     1  ; Amber99Sb-disp
 H1  CT  C   OB    9     180.0      0.33472     3  ; Amber99Sb-disp
 H1  CT  CT  Br    9       0.0      2.30120     1  ; Amber99Sb-disp
 H1  CT  CT  Cl    9       0.0      1.04600     1  ; Amber99Sb-disp
 H1  CT  CT  F     9       0.0      0.79496     1  ; Amber99Sb-disp
 H1  CT  CT  OH    9       0.0      1.04600     1  ; Amber99Sb-disp
 H1  CT  CT  OS    9       0.0      1.04600     1  ; Amber99Sb-disp
 HC  C3  CT  CT    9       0.0      0.66944     3  ; Amber99Sb-disp
 HC  C4  CT  CT    9       0.0      0.66944     3  ; Amber99Sb-disp
 HC  C4  CT  HC    9       0.0      0.62760     3  ; Amber99Sb-disp
 HC  CT  C3  HC    9       0.0      0.62760     3  ; Amber99Sb-disp
 HC  CT  C4  CT    9       0.0      0.66944     3  ; Amber99Sb-disp
 HC  CT  C5  O     9       0.0      3.34720     1  ; Amber99Sb-disp
 HC  CT  C5  O     9     180.0      0.33472     3  ; Amber99Sb-disp
 HC  CT  CM  CM    9       0.0      4.81160     1  ; Amber99Sb-disp
 HC  CT  CM  CM    9     180.0      1.58992     3  ; Amber99Sb-disp
 HC  CT  C   O     9       0.0      3.34720     1  ; Amber99Sb-disp
 HC  CT  C   O     9     180.0      0.33472     3  ; Amber99Sb-disp
 HC  CT  C   OB    9       0.0      3.34720     1  ; Amber99Sb-disp
 HC  CT  C   OB    9     180.0      0.33472     3  ; Amber99Sb-disp
 HC  CT  CT  Br    9       0.0      2.30120     1  ; Amber99Sb-disp
 HC  CT  CT  C3    9       0.0      0.66944     3  ; Amber99Sb-disp
 HC  CT  CT  C4    9       0.0      0.66944     3  ; Amber99Sb-disp
 HC  CT  CT  C7    9       0.0      0.66944     3  ; Amber99Sb-disp
 HC  CT  CT  Cl    9       0.0      1.04600     1  ; Amber99Sb-disp
 HC  CT  CT  CT    9       0.0      0.66944     3  ; Amber99Sb-disp
 HC  CT  CT  F     9       0.0      0.79496     1  ; Amber99Sb-disp
 HC  CT  CT  HC    9       0.0      0.62760     3  ; Amber99Sb-disp
 HC  CT  CT  OH    9       0.0      1.04600     1  ; Amber99Sb-disp
 HC  CT  CT  OS    9       0.0      1.04600     1  ; Amber99Sb-disp
 H   N   C5  O     9       0.0      8.36800     1  ; Amber99Sb-disp
 H   N   C5  O     9     180.0     10.46000     2  ; Amber99Sb-disp
 H   N   C   O     9       0.0      8.36800     1  ; Amber99Sb-disp
 H   N   C   O     9     180.0     10.46000     2  ; Amber99Sb-disp
 HB  N   C   OB    9       0.0      8.36800     1  ; Amber99Sb-disp
 HB  N   C   OB    9     180.0     10.46000     2  ; Amber99Sb-disp
 HO  O3  C8  CT    9       0.0      0.35982     1  ; Amber99Sb-disp
 HO  O3  C8  CT    9       0.0      0.41840     3  ; Amber99Sb-disp
 HO  O3  C8  CT    9     180.0      0.68199     2  ; Amber99Sb-disp
 HO  O3  C8  H1    9       0.0      0.41840     3  ; Amber99Sb-disp
 HO  OH  C8  CT    9       0.0      0.25104     2  ; Amber99Sb-disp
 HO  OH  C8  CT    9       0.0      0.83680     3  ; Amber99Sb-disp
 HO  OH  C8  CT    9       0.0      3.13800     1  ; Amber99Sb-disp
 HO  OH  C   O     9       0.0      7.94960     1  ; Amber99Sb-disp
 HO  OH  C   O     9     180.0      9.62320     2  ; Amber99Sb-disp
 HO  OH  CT  CT    9       0.0      0.66944     3  ; Amber99Sb-disp
 HO  OH  CT  CT    9       0.0      1.04600     1  ; Amber99Sb-disp
 N3  CT  CT  C3    9       0.0      0.81630     1  ; Amber99Sb-disp
 N3  CT  CT  C3    9     180.0      3.53925     2  ; Amber99Sb-disp
 N3  CT  CT  C6    9     180.0     11.02568     1  ; Amber99Sb-disp
 N3  CT  CT  C6    9     180.0      4.98022     2  ; Amber99Sb-disp
 N3  CT  CT  C6    9     180.0      0.02845     3  ; Amber99Sb-disp
 N3  CT  CT  C6    9       0.0      1.76858     4  ; Amber99Sb-disp
 N3  CT  CT  C6    9       0.0      0.96943     5  ; Amber99Sb-disp
 N3  CT  CT  C6    9     180.0      0.89009     6  ; Amber99Sb-disp
 N   C1  C   N     9     180.0      2.69445     1  ; Amber99Sb-disp
 N   C1  C   N     9     180.0      6.68666     2  ; Amber99Sb-disp
 N   C1  C   N     9     180.0      1.67111     3  ; Amber99Sb-disp
 N   C1  C   N     9       0.0      0.31419     4  ; Amber99Sb-disp
 N   C5  CT  CT    9     180.0      4.37772     1  ; Amber99Sb-disp
 N   C5  CT  CT    9     180.0      0.75730     2  ; Amber99Sb-disp
 N   C5  CT  CT    9     180.0      0.14811     3  ; Amber99Sb-disp
 N   C5  CT  CT    9       0.0      0.41966     4  ; Amber99Sb-disp
 N   C5  CT  CT    9       0.0      0.54308     5  ; Amber99Sb-disp
 N   C5  CT  CT    9     180.0      0.44373     6  ; Amber99Sb-disp
 N   C7  C   N     9     180.0      1.88280     1  ; Amber99Sb-disp
 N   C7  C   N     9     180.0      6.61072     2  ; Amber99Sb-disp
 N   C7  C   N     9     180.0      2.30120     3  ; Amber99Sb-disp
 N   CT  C8  CT    9       0.0      0.25104     1  ; Amber99Sb-disp
 N   CT  C8  CT    9     180.0      2.09200     2  ; Amber99Sb-disp
 N   CT  C8  CT    9       0.0      0.62760     3  ; Amber99Sb-disp
 N   CT  C8  CT    9     180.0      0.27196     4  ; Amber99Sb-disp
 N   CT  C8  O3    9     180.0      0.33472     1  ; Amber99Sb-disp
 N   CT  C8  OH    9     180.0      1.04600     1  ; Amber99Sb-disp
 N   CT  C   N     9     360.0      0.82425     1  ; Amber99Sb-disp
 N   CT  C   N     9     180.0      6.04588     2  ; Amber99Sb-disp
 N   CT  C   N     9     180.0      2.00414     3  ; Amber99Sb-disp
 N   CT  C   N     9     360.0      0.07991     4  ; Amber99Sb-disp
 N   CT  C   N     9     360.0      0.01674     5  ; Amber99Sb-disp
 N   CT  CT  C3    9       0.0      0.81630     1  ; Amber99Sb-disp
 N   CT  CT  C3    9     180.0      3.53925     2  ; Amber99Sb-disp
 N   CT  CT  C5    9     180.0      2.63592     1  ; Amber99Sb-disp
 N   CT  CT  C6    9     180.0     12.05410     1  ; Amber99Sb-disp
 N   CT  CT  C6    9     180.0      5.06682     2  ; Amber99Sb-disp
 N   CT  CT  C6    9       0.0      0.25941     3  ; Amber99Sb-disp
 N   CT  CT  C6    9       0.0      1.02508     4  ; Amber99Sb-disp
 N   CT  CT  C6    9       0.0      0.54810     5  ; Amber99Sb-disp
 N   CT  CT  C6    9     180.0      0.59413     6  ; Amber99Sb-disp
 N   CT  CT  C9    9       0.0      0.41840     1  ; Amber99Sb-disp
 N   CT  CT  CC    9     180.0      1.67360     1  ; Amber99Sb-disp
 N   CT  CT  SH    9     180.0      2.30120     1  ; Amber99Sb-disp
 N   CT  CT  SH    9     180.0      2.63592     2  ; Amber99Sb-disp
 N   CT  CT  SH    9     180.0      0.25104     3  ; Amber99Sb-disp
 N   CT  CT  SH    9     180.0      0.12552     4  ; Amber99Sb-disp
 O   C   OS  CT    9     180.0      5.85760     1  ; Amber99Sb-disp
 O   C   OS  CT    9     180.0     11.29680     2  ; Amber99Sb-disp
 OH  CT  CT  OH    9       0.0      0.60250     3  ; Amber99Sb-disp
 OH  CT  CT  OH    9       0.0      4.91620     2  ; Amber99Sb-disp
 OH  P   OS  CT    9       0.0      1.04600     3  ; Amber99Sb-disp
 OH  P   OS  CT    9       0.0      5.02080     2  ; Amber99Sb-disp
 OS  CT  CT  OH    9       0.0      0.60250     3  ; Amber99Sb-disp
 OS  CT  CT  OH    9       0.0      4.91620     2  ; Amber99Sb-disp
 OS  CT  CT  OS    9       0.0      4.91620     2  ; Amber99Sb-disp
 OS  CT  CT  OS    9       0.0      0.60250     3  ; Amber99Sb-disp
 OS  CT  N*  CK    9       0.0     10.46000     1  ; Amber99Sb-disp
 OS  CT  N*  CM    9       0.0     10.46000     1  ; Amber99Sb-disp
 OS  P   OS  CT    9       0.0      5.02080     2  ; Amber99Sb-disp
 OS  P   OS  CT    9       0.0      1.04600     3  ; Amber99Sb-disp
 N   CT  CT  CA    9       0.0      0.00000     0  ; Amber99Sb-disp
 N   CT  CT  C*    9       0.0      0.00000     0  ; Amber99Sb-disp
 CT  CT  C9  S     9       0.0      0.00000     0  ; Amber99Sb-disp
 CT  CT  C9  CT    9       0.0      0.00000     0  ; Amber99Sb-disp
 X   C1  N3  X     9       0.0      0.65084     3  ; Amber99Sb-disp
 X   C5  N   X     9     180.0     10.46000     2  ; Amber99Sb-disp
 X   C7  CT  X     9       0.0      0.65084     3  ; Amber99Sb-disp
 X   C7  N3  X     9       0.0      0.65084     3  ; Amber99Sb-disp
 X   C8  O3  X     9       0.0      0.69873     3  ; Amber99Sb-disp
 X   C8  OH  X     9       0.0      0.69873     3  ; Amber99Sb-disp
 X   C9  S   X     9       0.0      1.39327     3  ; Amber99Sb-disp
 X   CA  CA  X     9     180.0     15.16700     2  ; Amber99Sb-disp
 X   CA  CB  X     9     180.0     14.64400     2  ; Amber99Sb-disp
 X   CA  CM  X     9     180.0     10.66920     2  ; Amber99Sb-disp
 X   CA  CN  X     9     180.0     15.16700     2  ; Amber99Sb-disp
 X   CA  N2  X     9     180.0     10.04160     2  ; Amber99Sb-disp
 X   CA  NA  X     9     180.0      6.27600     2  ; Amber99Sb-disp
 X   CA  NC  X     9     180.0     20.08320     2  ; Amber99Sb-disp
 X   CA  OH  X     9     180.0      3.76560     2  ; Amber99Sb-disp
 X   CB  CB  X     9     180.0     22.80280     2  ; Amber99Sb-disp
 X   CB  CN  X     9     180.0     12.55200     2  ; Amber99Sb-disp
 X   CB  NB  X     9     180.0     10.66920     2  ; Amber99Sb-disp
 X   CB  NC  X     9     180.0     17.36360     2  ; Amber99Sb-disp
 X   CB  N*  X     9     180.0      6.90360     2  ; Amber99Sb-disp
 X   C   CA  X     9     180.0     15.16700     2  ; Amber99Sb-disp
 X   C   CB  X     9     180.0     12.55200     2  ; Amber99Sb-disp
 X   C*  CB  X     9     180.0      7.00820     2  ; Amber99Sb-disp
 X   CC  CV  X     9     180.0     21.54760     2  ; Amber99Sb-disp
 X   CC  CW  X     9     180.0     22.48900     2  ; Amber99Sb-disp
 X   C   CM  X     9     180.0      9.10020     2  ; Amber99Sb-disp
 X   CC  NA  X     9     180.0      5.85760     2  ; Amber99Sb-disp
 X   CC  NB  X     9     180.0     10.04160     2  ; Amber99Sb-disp
 X   C*  CW  X     9     180.0     27.30060     2  ; Amber99Sb-disp
 X   C   C   X     9     180.0     15.16700     2  ; Amber99Sb-disp
 X   CK  NB  X     9     180.0     41.84000     2  ; Amber99Sb-disp
 X   CK  N*  X     9     180.0      7.11280     2  ; Amber99Sb-disp
 X   CM  CM  X     9     180.0     27.82360     2  ; Amber99Sb-disp
 X   CM  N*  X     9     180.0      7.74040     2  ; Amber99Sb-disp
 X   CM  OS  X     9     180.0      4.39320     2  ; Amber99Sb-disp
 X   C   NA  X     9     180.0      5.64840     2  ; Amber99Sb-disp
 X   C   NC  X     9     180.0     16.73600     2  ; Amber99Sb-disp
 X   CN  NA  X     9     180.0      6.38060     2  ; Amber99Sb-disp
 X   C   N   X     9     180.0     10.46000     2  ; Amber99Sb-disp
 X   C   N*  X     9     180.0      6.06680     2  ; Amber99Sb-disp
 X   C   OH  X     9     180.0      9.62320     2  ; Amber99Sb-disp
 X   C   OS  X     9     180.0     11.29680     2  ; Amber99Sb-disp
 X   C   O   X     9     180.0     11.71520     2  ; Amber99Sb-disp
 X   C   OB  X     9     180.0     11.71520     2  ; Amber99Sb-disp
 X   CQ  NC  X     9     180.0     28.45120     2  ; Amber99Sb-disp
 X   CR  NA  X     9     180.0      9.72780     2  ; Amber99Sb-disp
 X   CR  NB  X     9     180.0     20.92000     2  ; Amber99Sb-disp
 X   CT  C8  X     9       0.0      0.64852     3  ; Amber99Sb-disp
 X   CT  C9  X     9       0.0      0.64852     3  ; Amber99Sb-disp
 X   CT  CT  X     9       0.0      0.65084     3  ; Amber99Sb-disp
 X   CT  N3  X     9       0.0      0.65084     3  ; Amber99Sb-disp
 X   CT  OH  X     9       0.0      0.69733     3  ; Amber99Sb-disp
 X   CT  OS  X     9       0.0      1.60387     3  ; Amber99Sb-disp
 X   CT  SH  X     9       0.0      1.04600     3  ; Amber99Sb-disp
 X   CT  S   X     9       0.0      1.39467     3  ; Amber99Sb-disp
 X   CV  NB  X     9     180.0     10.04160     2  ; Amber99Sb-disp
 X   CW  NA  X     9     180.0      6.27600     2  ; Amber99Sb-disp
 X   OH  P   X     9       0.0      1.04600     3  ; Amber99Sb-disp
 X   OS  P   X     9       0.0      1.04600     3  ; Amber99Sb-disp
 X   C1  N   X     9       0.0      0.00000     0  ; Amber99Sb-disp
 X   C   C1  X     9       0.0      0.00000     0  ; Amber99Sb-disp
 X   C   C9  X     9       0.0      0.00000     0  ; Amber99Sb-disp
 X   C   CT  X     9       0.0      0.00000     0  ; Amber99Sb-disp
 X   CA  CT  X     9       0.0      0.00000     0  ; Amber99Sb-disp
 X   CC  CT  X     9       0.0      0.00000     0  ; Amber99Sb-disp
 X   CM  CT  X     9       0.0      0.00000     0  ; Amber99Sb-disp
 X   CT  N   X     9       0.0      0.00000     0  ; Amber99Sb-disp
 X   CT  N*  X     9       0.0      0.00000     0  ; Amber99Sb-disp
 X   CT  N2  X     9       0.0      0.00000     0  ; Amber99Sb-disp
 X   C*  CT  X     9       0.0      0.00000     0  ; Amber99Sb-disp
 X   C7  N   X     9       0.0      0.00000     0  ; Amber99Sb-disp
 X   C   C7  X     9       0.0      0.00000     0  ; Amber99Sb-disp
 X   C5  CT  X     9       0.0      0.00000     0  ; Amber99Sb-disp
 X   C6  CT  X     9       0.0      0.00000     0  ; Amber99Sb-disp
; L47_GMX.top created by acpype (v: 2022.1.3) on Wed Jun  8 14:36:52 2022
; nbfunc        comb-rule       gen-pairs       fudgeLJ fudgeQQ
;1               2               yes             0.5     0.8333

[ moleculetype ]
; Name            nrexcl
Protein_chain_A     3

[ atoms ]
     1        sN3    121   NASP      N      1     0.0628      14.01
     2         sH    121   NASP     H1      2     0.1767       1.01
     3         sH    121   NASP     H2      3     0.1767       1.01
     4         sH    121   NASP     H3      4     0.1767       1.01
     5        sCT    121   NASP     CA      5     0.0235      12.01
     6        sHP    121   NASP     HA      6     0.0917       1.01
     7        sCT    121   NASP     CB      7    -0.0189      12.01
     8        sHC    121   NASP    HB1      8    -0.0136       1.01
     9        sHC    121   NASP    HB2      9    -0.0136       1.01
    10        sC6    121   NASP     CG     10     0.6583      12.01
    11        sO2    121   NASP    OD1     11    -0.6495      16.00
    12        sO2    121   NASP    OD2     12    -0.6495      16.00
    13         sC    121   NASP      C     13     0.4516      12.01
    14        sOB    121   NASP      O     14    -0.4731      16.00
    15         sN    122    ASN      N     15    -0.3340      14.01
    16        sHB    122    ASN      H     16     0.2184       1.01
    17        sCT    122    ASN     CA     17     0.0115      12.01
    18        sH1    122    ASN     HA     18     0.0842       1.01
    19        sCT    122    ASN     CB     19    -0.1640      12.01
    20        sHC    122    ASN    HB1     20     0.0640       1.01
    21        sHC    122    ASN    HB2     21     0.0640       1.01
    22        sC5    122    ASN     CG     22     0.5728      12.01
    23         sO    122    ASN    OD1     23    -0.4765      16.00
    24         sN    122    ASN    ND2     24    -0.7384      14.01
    25         sH    122    ASN   HD21     25     0.3371       1.01
    26         sH    122    ASN   HD22     26     0.3371       1.01
    27         sC    122    ASN      C     27     0.4799      12.01
    28        sOB    122    ASN      O     28    -0.4562      16.00
    29         sN    123    GLU      N     29    -0.3340      14.01
    30        sHB    123    GLU      H     30     0.2184       1.01
    31        sCT    123    GLU     CA     31    -0.1828      12.01
    32        sH1    123    GLU     HA     32     0.1242       1.01
    33        sCT    123    GLU     CB     33     0.0932      12.01
    34        sHC    123    GLU    HB1     34    -0.0050       1.01
    35        sHC    123    GLU    HB2     35    -0.0050       1.01
    36        sC9    123    GLU     CG     36    -0.0657      12.01
    37        sHC    123    GLU    HG1     37    -0.0049       1.01
    38        sHC    123    GLU    HG2     38    -0.0049       1.01
    39         sC    123    GLU     CD     39     0.5854      12.01
    40        sO2    123    GLU    OE1     40    -0.6229      16.00
    41        sO2    123    GLU    OE2     41    -0.6229      16.00
    42         sC    123    GLU      C     42     0.4799      12.01
    43        sOB    123    GLU      O     43    -0.4562      16.00
    44         sN    124    ALA      N     44    -0.3340      14.01
    45        sHB    124    ALA      H     45     0.2184       1.01
    46        sCT    124    ALA     CA     46     0.0271      12.01
    47        sH1    124    ALA     HA     47     0.0661       1.01
    48        sCT    124    ALA     CB     48    -0.1466      12.01
    49        sHC    124    ALA    HB1     49     0.0484       1.01
    50        sHC    124    ALA    HB2     50     0.0484       1.01
    51        sHC    124    ALA    HB3     51     0.0484       1.01
    52         sC    124    ALA      C     52     0.4799      12.01
    53        sOB    124    ALA      O     53    -0.4562      16.00
    54         sN    125    TYR      N     54    -0.3340      14.01
    55        sHB    125    TYR      H     55     0.2184       1.01
    56        sCT    125    TYR     CA     56    -0.0011      12.01
    57        sH1    125    TYR     HA     57     0.0704       1.01
    58        sCT    125    TYR     CB     58    -0.0122      12.01
    59        sHC    125    TYR    HB1     59     0.0237       1.01
    60        sHC    125    TYR    HB2     60     0.0237       1.01
    61        sCA    125    TYR     CG     61    -0.0009      12.01
    62        sCA    125    TYR    CD1     62    -0.1531      12.01
    63        sHA    125    TYR    HD1     63     0.1365       1.01
    64        sCA    125    TYR    CE1     64    -0.1881      12.01
    65        sHA    125    TYR    HE1     65     0.1330       1.01
    66         sC    125    TYR     CZ     66     0.2592      12.01
    67        sOH    125    TYR     OH     67    -0.4482      16.00
    68        sHO    125    TYR     HH     68     0.3207       1.01
    69        sCA    125    TYR    CE2     69    -0.1881      12.01
    70        sHA    125    TYR    HE2     70     0.1330       1.01
    71        sCA    125    TYR    CD2     71    -0.1531      12.01
    72        sHA    125    TYR    HD2     72     0.1365       1.01
    73         sC    125    TYR      C     73     0.4799      12.01
    74        sOB    125    TYR      O     74    -0.4562      16.00
    75         sN    126    GLU      N     75    -0.3340      14.01
    76        sHB    126    GLU      H     76     0.2184       1.01
    77        sCT    126    GLU     CA     77    -0.1828      12.01
    78        sH1    126    GLU     HA     78     0.1242       1.01
    79        sCT    126    GLU     CB     79     0.0932      12.01
    80        sHC    126    GLU    HB1     80    -0.0050       1.01
    81        sHC    126    GLU    HB2     81    -0.0050       1.01
    82        sC9    126    GLU     CG     82    -0.0657      12.01
    83        sHC    126    GLU    HG1     83    -0.0049       1.01
    84        sHC    126    GLU    HG2     84    -0.0049       1.01
    85         sC    126    GLU     CD     85     0.5854      12.01
    86        sO2    126    GLU    OE1     86    -0.6229      16.00
    87        sO2    126    GLU    OE2     87    -0.6229      16.00
    88         sC    126    GLU      C     88     0.4799      12.01
    89        sOB    126    GLU      O     89    -0.4562      16.00
    90         sN    127    MET      N     90    -0.3340      14.01
    91        sHB    127    MET      H     91     0.2184       1.01
    92        sCT    127    MET     CA     92    -0.0190      12.01
    93        sH1    127    MET     HA     93     0.0707       1.01
    94        sCT    127    MET     CB     94     0.0275      12.01
    95        sHC    127    MET    HB1     95     0.0194       1.01
    96        sHC    127    MET    HB2     96     0.0194       1.01
    97        sC9    127    MET     CG     97     0.0014      12.01
    98        sH1    127    MET    HG1     98     0.0353       1.01
    99        sH1    127    MET    HG2     99     0.0353       1.01
   100         sS    127    MET     SD    100    -0.2199      32.06
   101        sCT    127    MET     CE    101    -0.0431      12.01
   102        sH1    127    MET    HE1    102     0.0550       1.01
   103        sH1    127    MET    HE2    103     0.0550       1.01
   104        sH1    127    MET    HE3    104     0.0550       1.01
   105         sC    127    MET      C    105     0.4799      12.01
   106        sOB    127    MET      O    106    -0.4562      16.00
   107         sN    128    PRO      N    107    -0.2047      14.01
   108        sCT    128    PRO     CD    108     0.0154      12.01
   109        sH1    128    PRO    HD1    109     0.0314       1.01
   110        sH1    128    PRO    HD2    110     0.0314       1.01
   111        sCT    128    PRO     CG    111     0.0152      12.01
   112        sHC    128    PRO    HG1    112     0.0171       1.01
   113        sHC    128    PRO    HG2    113     0.0171       1.01
   114        sCT    128    PRO     CB    114    -0.0056      12.01
   115        sHC    128    PRO    HB1    115     0.0203       1.01
   116        sHC    128    PRO    HB2    116     0.0203       1.01
   117        sC7    128    PRO     CA    117    -0.0214      12.01
   118        sH1    128    PRO     HA    118     0.0515       1.01
   119         sC    128    PRO      C    119     0.4737      12.01
   120        sOB    128    PRO      O    120    -0.4618      16.00
   121         sN    129    SER      N    121    -0.3340      14.01
   122        sHB    129    SER      H    122     0.2184       1.01
   123        sCT    129    SER     CA    123    -0.0200      12.01
   124        sH1    129    SER     HA    124     0.0677       1.01
   125        sC8    129    SER     CB    125     0.1701      12.01
   126        sH1    129    SER    HB1    126     0.0283       1.01
   127        sH1    129    SER    HB2    127     0.0283       1.01
   128        sOH    129    SER     OG    128    -0.5259      16.00
   129        sHO    129    SER    HG1    129     0.3434       1.01
   130         sC    129    SER      C    130     0.4799      12.01
   131        sOB    129    SER      O    131    -0.4562      16.00
   132         sN    130    GLU      N    132    -0.3340      14.01
   133        sHB    130    GLU      H    133     0.2184       1.01
   134        sCT    130    GLU     CA    134    -0.1828      12.01
   135        sH1    130    GLU     HA    135     0.1242       1.01
   136        sCT    130    GLU     CB    136     0.0932      12.01
   137        sHC    130    GLU    HB1    137    -0.0050       1.01
   138        sHC    130    GLU    HB2    138    -0.0050       1.01
   139        sC9    130    GLU     CG    139    -0.0657      12.01
   140        sHC    130    GLU    HG1    140    -0.0049       1.01
   141        sHC    130    GLU    HG2    141    -0.0049       1.01
   142         sC    130    GLU     CD    142     0.5854      12.01
   143        sO2    130    GLU    OE1    143    -0.6229      16.00
   144        sO2    130    GLU    OE2    144    -0.6229      16.00
   145         sC    130    GLU      C    145     0.4799      12.01
   146        sOB    130    GLU      O    146    -0.4562      16.00
   147         sN    131    GLU      N    147    -0.3340      14.01
   148        sHB    131    GLU      H    148     0.2184       1.01
   149        sCT    131    GLU     CA    149    -0.1828      12.01
   150        sH1    131    GLU     HA    150     0.1242       1.01
   151        sCT    131    GLU     CB    151     0.0932      12.01
   152        sHC    131    GLU    HB1    152    -0.0050       1.01
   153        sHC    131    GLU    HB2    153    -0.0050       1.01
   154        sC9    131    GLU     CG    154    -0.0657      12.01
   155        sHC    131    GLU    HG1    155    -0.0049       1.01
   156        sHC    131    GLU    HG2    156    -0.0049       1.01
   157         sC    131    GLU     CD    157     0.5854      12.01
   158        sO2    131    GLU    OE1    158    -0.6229      16.00
   159        sO2    131    GLU    OE2    159    -0.6229      16.00
   160         sC    131    GLU      C    160     0.4799      12.01
   161        sOB    131    GLU      O    161    -0.4562      16.00
   162         sN    132    GLY      N    162    -0.3340      14.01
   163        sHB    132    GLY      H    163     0.2184       1.01
   164        sC1    132    GLY     CA    164    -0.0202      12.01
   165        sH1    132    GLY    HA1    165     0.0561       1.01
   166        sH1    132    GLY    HA2    166     0.0561       1.01
   167         sC    132    GLY      C    167     0.4799      12.01
   168        sOB    132    GLY      O    168    -0.4562      16.00
   169         sN    133    TYR      N    169    -0.3340      14.01
   170        sHB    133    TYR      H    170     0.2184       1.01
   171        sCT    133    TYR     CA    171    -0.0011      12.01
   172        sH1    133    TYR     HA    172     0.0704       1.01
   173        sCT    133    TYR     CB    173    -0.0122      12.01
   174        sHC    133    TYR    HB1    174     0.0237       1.01
   175        sHC    133    TYR    HB2    175     0.0237       1.01
   176        sCA    133    TYR     CG    176    -0.0009      12.01
   177        sCA    133    TYR    CD1    177    -0.1531      12.01
   178        sHA    133    TYR    HD1    178     0.1365       1.01
   179        sCA    133    TYR    CE1    179    -0.1881      12.01
   180        sHA    133    TYR    HE1    180     0.1330       1.01
   181         sC    133    TYR     CZ    181     0.2592      12.01
   182        sOH    133    TYR     OH    182    -0.4482      16.00
   183        sHO    133    TYR     HH    183     0.3207       1.01
   184        sCA    133    TYR    CE2    184    -0.1881      12.01
   185        sHA    133    TYR    HE2    185     0.1330       1.01
   186        sCA    133    TYR    CD2    186    -0.1531      12.01
   187        sHA    133    TYR    HD2    187     0.1365       1.01
   188         sC    133    TYR      C    188     0.4799      12.01
   189        sOB    133    TYR      O    189    -0.4562      16.00
   190         sN    134    GLN      N    190    -0.3340      14.01
   191        sHB    134    GLN      H    191     0.2184       1.01
   192        sCT    134    GLN     CA    192    -0.0025      12.01
   193        sH1    134    GLN     HA    193     0.0683       1.01
   194        sCT    134    GLN     CB    194    -0.0029      12.01
   195        sHC    134    GLN    HB1    195     0.0137       1.01
   196        sHC    134    GLN    HB2    196     0.0137       1.01
   197        sC9    134    GLN     CG    197    -0.0518      12.01
   198        sHC    134    GLN    HG1    198     0.0283       1.01
   199        sHC    134    GLN    HG2    199     0.0283       1.01
   200         sC    134    GLN     CD    200     0.5584      12.01
   201         sO    134    GLN    OE1    201    -0.4889      16.00
   202         sN    134    GLN    NE2    202    -0.7557      14.01
   203         sH    134    GLN   HE21    203     0.3415       1.01
   204         sH    134    GLN   HE22    204     0.3415       1.01
   205         sC    134    GLN      C    205     0.4799      12.01
   206        sOB    134    GLN      O    206    -0.4562      16.00
   207         sN    135    ASP      N    207    -0.3340      14.01
   208        sHB    135    ASP      H    208     0.2184       1.01
   209        sCT    135    ASP     CA    209    -0.1804      12.01
   210        sH1    135    ASP     HA    210     0.1174       1.01
   211        sCT    135    ASP     CB    211     0.0029      12.01
   212        sHC    135    ASP    HB1    212    -0.0125       1.01
   213        sHC    135    ASP    HB2    213    -0.0125       1.01
   214        sC6    135    ASP     CG    214     0.6129      12.01
   215        sO2    135    ASP    OD1    215    -0.6196      16.00
   216        sO2    135    ASP    OD2    216    -0.6196      16.00
   217         sC    135    ASP      C    217     0.4799      12.01
   218        sOB    135    ASP      O    218    -0.4562      16.00
   219         sN    136    TYR      N    219    -0.3340      14.01
   220        sHB    136    TYR      H    220     0.2184       1.01
   221        sCT    136    TYR     CA    221    -0.0011      12.01
   222        sH1    136    TYR     HA    222     0.0704       1.01
   223        sCT    136    TYR     CB    223    -0.0122      12.01
   224        sHC    136    TYR    HB1    224     0.0237       1.01
   225        sHC    136    TYR    HB2    225     0.0237       1.01
   226        sCA    136    TYR     CG    226    -0.0009      12.01
   227        sCA    136    TYR    CD1    227    -0.1531      12.01
   228        sHA    136    TYR    HD1    228     0.1365       1.01
   229        sCA    136    TYR    CE1    229    -0.1881      12.01
   230        sHA    136    TYR    HE1    230     0.1330       1.01
   231         sC    136    TYR     CZ    231     0.2592      12.01
   232        sOH    136    TYR     OH    232    -0.4482      16.00
   233        sHO    136    TYR     HH    233     0.3207       1.01
   234        sCA    136    TYR    CE2    234    -0.1881      12.01
   235        sHA    136    TYR    HE2    235     0.1330       1.01
   236        sCA    136    TYR    CD2    236    -0.1531      12.01
   237        sHA    136    TYR    HD2    237     0.1365       1.01
   238         sC    136    TYR      C    238     0.4799      12.01
   239        sOB    136    TYR      O    239    -0.4562      16.00
   240         sN    137    GLU      N    240    -0.3340      14.01
   241        sHB    137    GLU      H    241     0.2184       1.01
   242        sCT    137    GLU     CA    242    -0.1828      12.01
   243        sH1    137    GLU     HA    243     0.1242       1.01
   244        sCT    137    GLU     CB    244     0.0932      12.01
   245        sHC    137    GLU    HB1    245    -0.0050       1.01
   246        sHC    137    GLU    HB2    246    -0.0050       1.01
   247        sC9    137    GLU     CG    247    -0.0657      12.01
   248        sHC    137    GLU    HG1    248    -0.0049       1.01
   249        sHC    137    GLU    HG2    249    -0.0049       1.01
   250         sC    137    GLU     CD    250     0.5854      12.01
   251        sO2    137    GLU    OE1    251    -0.6229      16.00
   252        sO2    137    GLU    OE2    252    -0.6229      16.00
   253         sC    137    GLU      C    253     0.4799      12.01
   254        sOB    137    GLU      O    254    -0.4562      16.00
   255         sN    138    PRO      N    255    -0.2047      14.01
   256        sCT    138    PRO     CD    256     0.0154      12.01
   257        sH1    138    PRO    HD1    257     0.0314       1.01
   258        sH1    138    PRO    HD2    258     0.0314       1.01
   259        sCT    138    PRO     CG    259     0.0152      12.01
   260        sHC    138    PRO    HG1    260     0.0171       1.01
   261        sHC    138    PRO    HG2    261     0.0171       1.01
   262        sCT    138    PRO     CB    262    -0.0056      12.01
   263        sHC    138    PRO    HB1    263     0.0203       1.01
   264        sHC    138    PRO    HB2    264     0.0203       1.01
   265        sC7    138    PRO     CA    265    -0.0214      12.01
   266        sH1    138    PRO     HA    266     0.0515       1.01
   267         sC    138    PRO      C    267     0.4737      12.01
   268        sOB    138    PRO      O    268    -0.4618      16.00
   269         sN    139    GLU      N    269    -0.3340      14.01
   270        sHB    139    GLU      H    270     0.2184       1.01
   271        sCT    139    GLU     CA    271    -0.1828      12.01
   272        sH1    139    GLU     HA    272     0.1242       1.01
   273        sCT    139    GLU     CB    273     0.0932      12.01
   274        sHC    139    GLU    HB1    274    -0.0050       1.01
   275        sHC    139    GLU    HB2    275    -0.0050       1.01
   276        sC9    139    GLU     CG    276    -0.0657      12.01
   277        sHC    139    GLU    HG1    277    -0.0049       1.01
   278        sHC    139    GLU    HG2    278    -0.0049       1.01
   279         sC    139    GLU     CD    279     0.5854      12.01
   280        sO2    139    GLU    OE1    280    -0.6229      16.00
   281        sO2    139    GLU    OE2    281    -0.6229      16.00
   282         sC    139    GLU      C    282     0.4799      12.01
   283        sOB    139    GLU      O    283    -0.4562      16.00
   284         sN    140   CALA      N    284    -0.3070      14.01
   285        sHB    140   CALA      H    285     0.2154       1.01
   286        sCT    140   CALA     CA    286    -0.1404      12.01
   287        sH1    140   CALA     HA    287     0.0857       1.01
   288        sCT    140   CALA     CB    288    -0.1681      12.01
   289        sHC    140   CALA    HB1    289     0.0614       1.01
   290        sHC    140   CALA    HB2    290     0.0614       1.01
   291        sHC    140   CALA    HB3    291     0.0614       1.01
   292         sC    140   CALA      C    292     0.6211      12.01
   293        sO2    140   CALA    OC1    293    -0.6471      16.00
   294        sO2    140   CALA    OC2    294    -0.6471      16.00

[ bonds ]
    1     2     1
    1     3     1
    1     4     1
    1     5     1
    5     6     1
    5     7     1
    5    13     1
    7     8     1
    7     9     1
    7    10     1
   10    11     1
   10    12     1
   13    14     1
   13    15     1
   15    16     1
   15    17     1
   17    18     1
   17    19     1
   17    27     1
   19    20     1
   19    21     1
   19    22     1
   22    23     1
   22    24     1
   24    25     1
   24    26     1
   27    28     1
   27    29     1
   29    30     1
   29    31     1
   31    32     1
   31    33     1
   31    42     1
   33    34     1
   33    35     1
   33    36     1
   36    37     1
   36    38     1
   36    39     1
   39    40     1
   39    41     1
   42    43     1
   42    44     1
   44    45     1
   44    46     1
   46    47     1
   46    48     1
   46    52     1
   48    49     1
   48    50     1
   48    51     1
   52    53     1
   52    54     1
   54    55     1
   54    56     1
   56    57     1
   56    58     1
   56    73     1
   58    59     1
   58    60     1
   58    61     1
   61    62     1
   61    71     1
   62    63     1
   62    64     1
   64    65     1
   64    66     1
   66    67     1
   66    69     1
   67    68     1
   69    70     1
   69    71     1
   71    72     1
   73    74     1
   73    75     1
   75    76     1
   75    77     1
   77    78     1
   77    79     1
   77    88     1
   79    80     1
   79    81     1
   79    82     1
   82    83     1
   82    84     1
   82    85     1
   85    86     1
   85    87     1
   88    89     1
   88    90     1
   90    91     1
   90    92     1
   92    93     1
   92    94     1
   92   105     1
   94    95     1
   94    96     1
   94    97     1
   97    98     1
   97    99     1
   97   100     1
  100   101     1
  101   102     1
  101   103     1
  101   104     1
  105   106     1
  105   107     1
  107   108     1
  107   117     1
  108   109     1
  108   110     1
  108   111     1
  111   112     1
  111   113     1
  111   114     1
  114   115     1
  114   116     1
  114   117     1
  117   118     1
  117   119     1
  119   120     1
  119   121     1
  121   122     1
  121   123     1
  123   124     1
  123   125     1
  123   130     1
  125   126     1
  125   127     1
  125   128     1
  128   129     1
  130   131     1
  130   132     1
  132   133     1
  132   134     1
  134   135     1
  134   136     1
  134   145     1
  136   137     1
  136   138     1
  136   139     1
  139   140     1
  139   141     1
  139   142     1
  142   143     1
  142   144     1
  145   146     1
  145   147     1
  147   148     1
  147   149     1
  149   150     1
  149   151     1
  149   160     1
  151   152     1
  151   153     1
  151   154     1
  154   155     1
  154   156     1
  154   157     1
  157   158     1
  157   159     1
  160   161     1
  160   162     1
  162   163     1
  162   164     1
  164   165     1
  164   166     1
  164   167     1
  167   168     1
  167   169     1
  169   170     1
  169   171     1
  171   172     1
  171   173     1
  171   188     1
  173   174     1
  173   175     1
  173   176     1
  176   177     1
  176   186     1
  177   178     1
  177   179     1
  179   180     1
  179   181     1
  181   182     1
  181   184     1
  182   183     1
  184   185     1
  184   186     1
  186   187     1
  188   189     1
  188   190     1
  190   191     1
  190   192     1
  192   193     1
  192   194     1
  192   205     1
  194   195     1
  194   196     1
  194   197     1
  197   198     1
  197   199     1
  197   200     1
  200   201     1
  200   202     1
  202   203     1
  202   204     1
  205   206     1
  205   207     1
  207   208     1
  207   209     1
  209   210     1
  209   211     1
  209   217     1
  211   212     1
  211   213     1
  211   214     1
  214   215     1
  214   216     1
  217   218     1
  217   219     1
  219   220     1
  219   221     1
  221   222     1
  221   223     1
  221   238     1
  223   224     1
  223   225     1
  223   226     1
  226   227     1
  226   236     1
  227   228     1
  227   229     1
  229   230     1
  229   231     1
  231   232     1
  231   234     1
  232   233     1
  234   235     1
  234   236     1
  236   237     1
  238   239     1
  238   240     1
  240   241     1
  240   242     1
  242   243     1
  242   244     1
  242   253     1
  244   245     1
  244   246     1
  244   247     1
  247   248     1
  247   249     1
  247   250     1
  250   251     1
  250   252     1
  253   254     1
  253   255     1
  255   256     1
  255   265     1
  256   257     1
  256   258     1
  256   259     1
  259   260     1
  259   261     1
  259   262     1
  262   263     1
  262   264     1
  262   265     1
  265   266     1
  265   267     1
  267   268     1
  267   269     1
  269   270     1
  269   271     1
  271   272     1
  271   273     1
  271   282     1
  273   274     1
  273   275     1
  273   276     1
  276   277     1
  276   278     1
  276   279     1
  279   280     1
  279   281     1
  282   283     1
  282   284     1
  284   285     1
  284   286     1
  286   287     1
  286   288     1
  286   292     1
  288   289     1
  288   290     1
  288   291     1
  292   293     1
  292   294     1


[ pairs ]
    1     8     1
    1     9     1
    1    10     1
    1    14     1
    1    15     1
    2     6     1
    2     7     1
    2    13     1
    3     6     1
    3     7     1
    3    13     1
    4     6     1
    4     7     1
    4    13     1
    5    11     1
    5    12     1
    5    16     1
    5    17     1
    6     8     1
    6     9     1
    6    10     1
    6    14     1
    6    15     1
    7    14     1
    7    15     1
    8    11     1
    8    12     1
    8    13     1
    9    11     1
    9    12     1
    9    13     1
   10    13     1
   13    18     1
   13    19     1
   13    27     1
   14    16     1
   14    17     1
   15    20     1
   15    21     1
   15    22     1
   15    28     1
   15    29     1
   16    18     1
   16    19     1
   16    27     1
   17    23     1
   17    24     1
   17    30     1
   17    31     1
   18    20     1
   18    21     1
   18    22     1
   18    28     1
   18    29     1
   19    25     1
   19    26     1
   19    28     1
   19    29     1
   20    23     1
   20    24     1
   20    27     1
   21    23     1
   21    24     1
   21    27     1
   22    27     1
   23    25     1
   23    26     1
   27    32     1
   27    33     1
   27    42     1
   28    30     1
   28    31     1
   29    34     1
   29    35     1
   29    36     1
   29    43     1
   29    44     1
   30    32     1
   30    33     1
   30    42     1
   31    37     1
   31    38     1
   31    39     1
   31    45     1
   31    46     1
   32    34     1
   32    35     1
   32    36     1
   32    43     1
   32    44     1
   33    40     1
   33    41     1
   33    43     1
   33    44     1
   34    37     1
   34    38     1
   34    39     1
   34    42     1
   35    37     1
   35    38     1
   35    39     1
   35    42     1
   36    42     1
   37    40     1
   37    41     1
   38    40     1
   38    41     1
   42    47     1
   42    48     1
   42    52     1
   43    45     1
   43    46     1
   44    49     1
   44    50     1
   44    51     1
   44    53     1
   44    54     1
   45    47     1
   45    48     1
   45    52     1
   46    55     1
   46    56     1
   47    49     1
   47    50     1
   47    51     1
   47    53     1
   47    54     1
   48    53     1
   48    54     1
   49    52     1
   50    52     1
   51    52     1
   52    57     1
   52    58     1
   52    73     1
   53    55     1
   53    56     1
   54    59     1
   54    60     1
   54    61     1
   54    74     1
   54    75     1
   55    57     1
   55    58     1
   55    73     1
   56    62     1
   56    71     1
   56    76     1
   56    77     1
   57    59     1
   57    60     1
   57    61     1
   57    74     1
   57    75     1
   58    63     1
   58    64     1
   58    69     1
   58    72     1
   58    74     1
   58    75     1
   59    62     1
   59    71     1
   59    73     1
   60    62     1
   60    71     1
   60    73     1
   61    65     1
   61    66     1
   61    70     1
   61    73     1
   62    67     1
   62    69     1
   62    72     1
   63    65     1
   63    66     1
   63    71     1
   64    68     1
   64    70     1
   64    71     1
   65    67     1
   65    69     1
   66    72     1
   67    70     1
   67    71     1
   68    69     1
   70    72     1
   73    78     1
   73    79     1
   73    88     1
   74    76     1
   74    77     1
   75    80     1
   75    81     1
   75    82     1
   75    89     1
   75    90     1
   76    78     1
   76    79     1
   76    88     1
   77    83     1
   77    84     1
   77    85     1
   77    91     1
   77    92     1
   78    80     1
   78    81     1
   78    82     1
   78    89     1
   78    90     1
   79    86     1
   79    87     1
   79    89     1
   79    90     1
   80    83     1
   80    84     1
   80    85     1
   80    88     1
   81    83     1
   81    84     1
   81    85     1
   81    88     1
   82    88     1
   83    86     1
   83    87     1
   84    86     1
   84    87     1
   88    93     1
   88    94     1
   88   105     1
   89    91     1
   89    92     1
   90    95     1
   90    96     1
   90    97     1
   90   106     1
   90   107     1
   91    93     1
   91    94     1
   91   105     1
   92    98     1
   92    99     1
   92   100     1
   92   108     1
   92   117     1
   93    95     1
   93    96     1
   93    97     1
   93   106     1
   93   107     1
   94   101     1
   94   106     1
   94   107     1
   95    98     1
   95    99     1
   95   100     1
   95   105     1
   96    98     1
   96    99     1
   96   100     1
   96   105     1
   97   102     1
   97   103     1
   97   104     1
   97   105     1
   98   101     1
   99   101     1
  105   109     1
  105   110     1
  105   111     1
  105   114     1
  105   118     1
  105   119     1
  106   108     1
  106   117     1
  107   112     1
  107   113     1
  107   115     1
  107   116     1
  107   120     1
  107   121     1
  108   115     1
  108   116     1
  108   118     1
  108   119     1
  109   112     1
  109   113     1
  109   114     1
  109   117     1
  110   112     1
  110   113     1
  110   114     1
  110   117     1
  111   118     1
  111   119     1
  112   115     1
  112   116     1
  112   117     1
  113   115     1
  113   116     1
  113   117     1
  114   120     1
  114   121     1
  115   118     1
  115   119     1
  116   118     1
  116   119     1
  117   122     1
  117   123     1
  118   120     1
  118   121     1
  119   124     1
  119   125     1
  119   130     1
  120   122     1
  120   123     1
  121   126     1
  121   127     1
  121   128     1
  121   131     1
  121   132     1
  122   124     1
  122   125     1
  122   130     1
  123   129     1
  123   133     1
  123   134     1
  124   126     1
  124   127     1
  124   128     1
  124   131     1
  124   132     1
  125   131     1
  125   132     1
  126   129     1
  126   130     1
  127   129     1
  127   130     1
  128   130     1
  130   135     1
  130   136     1
  130   145     1
  131   133     1
  131   134     1
  132   137     1
  132   138     1
  132   139     1
  132   146     1
  132   147     1
  133   135     1
  133   136     1
  133   145     1
  134   140     1
  134   141     1
  134   142     1
  134   148     1
  134   149     1
  135   137     1
  135   138     1
  135   139     1
  135   146     1
  135   147     1
  136   143     1
  136   144     1
  136   146     1
  136   147     1
  137   140     1
  137   141     1
  137   142     1
  137   145     1
  138   140     1
  138   141     1
  138   142     1
  138   145     1
  139   145     1
  140   143     1
  140   144     1
  141   143     1
  141   144     1
  145   150     1
  145   151     1
  145   160     1
  146   148     1
  146   149     1
  147   152     1
  147   153     1
  147   154     1
  147   161     1
  147   162     1
  148   150     1
  148   151     1
  148   160     1
  149   155     1
  149   156     1
  149   157     1
  149   163     1
  149   164     1
  150   152     1
  150   153     1
  150   154     1
  150   161     1
  150   162     1
  151   158     1
  151   159     1
  151   161     1
  151   162     1
  152   155     1
  152   156     1
  152   157     1
  152   160     1
  153   155     1
  153   156     1
  153   157     1
  153   160     1
  154   160     1
  155   158     1
  155   159     1
  156   158     1
  156   159     1
  160   165     1
  160   166     1
  160   167     1
  161   163     1
  161   164     1
  162   168     1
  162   169     1
  163   165     1
  163   166     1
  163   167     1
  164   170     1
  164   171     1
  165   168     1
  165   169     1
  166   168     1
  166   169     1
  167   172     1
  167   173     1
  167   188     1
  168   170     1
  168   171     1
  169   174     1
  169   175     1
  169   176     1
  169   189     1
  169   190     1
  170   172     1
  170   173     1
  170   188     1
  171   177     1
  171   186     1
  171   191     1
  171   192     1
  172   174     1
  172   175     1
  172   176     1
  172   189     1
  172   190     1
  173   178     1
  173   179     1
  173   184     1
  173   187     1
  173   189     1
  173   190     1
  174   177     1
  174   186     1
  174   188     1
  175   177     1
  175   186     1
  175   188     1
  176   180     1
  176   181     1
  176   185     1
  176   188     1
  177   182     1
  177   184     1
  177   187     1
  178   180     1
  178   181     1
  178   186     1
  179   183     1
  179   185     1
  179   186     1
  180   182     1
  180   184     1
  181   187     1
  182   185     1
  182   186     1
  183   184     1
  185   187     1
  188   193     1
  188   194     1
  188   205     1
  189   191     1
  189   192     1
  190   195     1
  190   196     1
  190   197     1
  190   206     1
  190   207     1
  191   193     1
  191   194     1
  191   205     1
  192   198     1
  192   199     1
  192   200     1
  192   208     1
  192   209     1
  193   195     1
  193   196     1
  193   197     1
  193   206     1
  193   207     1
  194   201     1
  194   202     1
  194   206     1
  194   207     1
  195   198     1
  195   199     1
  195   200     1
  195   205     1
  196   198     1
  196   199     1
  196   200     1
  196   205     1
  197   203     1
  197   204     1
  197   205     1
  198   201     1
  198   202     1
  199   201     1
  199   202     1
  201   203     1
  201   204     1
  205   210     1
  205   211     1
  205   217     1
  206   208     1
  206   209     1
  207   212     1
  207   213     1
  207   214     1
  207   218     1
  207   219     1
  208   210     1
  208   211     1
  208   217     1
  209   215     1
  209   216     1
  209   220     1
  209   221     1
  210   212     1
  210   213     1
  210   214     1
  210   218     1
  210   219     1
  211   218     1
  211   219     1
  212   215     1
  212   216     1
  212   217     1
  213   215     1
  213   216     1
  213   217     1
  214   217     1
  217   222     1
  217   223     1
  217   238     1
  218   220     1
  218   221     1
  219   224     1
  219   225     1
  219   226     1
  219   239     1
  219   240     1
  220   222     1
  220   223     1
  220   238     1
  221   227     1
  221   236     1
  221   241     1
  221   242     1
  222   224     1
  222   225     1
  222   226     1
  222   239     1
  222   240     1
  223   228     1
  223   229     1
  223   234     1
  223   237     1
  223   239     1
  223   240     1
  224   227     1
  224   236     1
  224   238     1
  225   227     1
  225   236     1
  225   238     1
  226   230     1
  226   231     1
  226   235     1
  226   238     1
  227   232     1
  227   234     1
  227   237     1
  228   230     1
  228   231     1
  228   236     1
  229   233     1
  229   235     1
  229   236     1
  230   232     1
  230   234     1
  231   237     1
  232   235     1
  232   236     1
  233   234     1
  235   237     1
  238   243     1
  238   244     1
  238   253     1
  239   241     1
  239   242     1
  240   245     1
  240   246     1
  240   247     1
  240   254     1
  240   255     1
  241   243     1
  241   244     1
  241   253     1
  242   248     1
  242   249     1
  242   250     1
  242   256     1
  242   265     1
  243   245     1
  243   246     1
  243   247     1
  243   254     1
  243   255     1
  244   251     1
  244   252     1
  244   254     1
  244   255     1
  245   248     1
  245   249     1
  245   250     1
  245   253     1
  246   248     1
  246   249     1
  246   250     1
  246   253     1
  247   253     1
  248   251     1
  248   252     1
  249   251     1
  249   252     1
  253   257     1
  253   258     1
  253   259     1
  253   262     1
  253   266     1
  253   267     1
  254   256     1
  254   265     1
  255   260     1
  255   261     1
  255   263     1
  255   264     1
  255   268     1
  255   269     1
  256   263     1
  256   264     1
  256   266     1
  256   267     1
  257   260     1
  257   261     1
  257   262     1
  257   265     1
  258   260     1
  258   261     1
  258   262     1
  258   265     1
  259   266     1
  259   267     1
  260   263     1
  260   264     1
  260   265     1
  261   263     1
  261   264     1
  261   265     1
  262   268     1
  262   269     1
  263   266     1
  263   267     1
  264   266     1
  264   267     1
  265   270     1
  265   271     1
  266   268     1
  266   269     1
  267   272     1
  267   273     1
  267   282     1
  268   270     1
  268   271     1
  269   274     1
  269   275     1
  269   276     1
  269   283     1
  269   284     1
  270   272     1
  270   273     1
  270   282     1
  271   277     1
  271   278     1
  271   279     1
  271   285     1
  271   286     1
  272   274     1
  272   275     1
  272   276     1
  272   283     1
  272   284     1
  273   280     1
  273   281     1
  273   283     1
  273   284     1
  274   277     1
  274   278     1
  274   279     1
  274   282     1
  275   277     1
  275   278     1
  275   279     1
  275   282     1
  276   282     1
  277   280     1
  277   281     1
  278   280     1
  278   281     1
  282   287     1
  282   288     1
  282   292     1
  283   285     1
  283   286     1
  284   289     1
  284   290     1
  284   291     1
  284   293     1
  284   294     1
  285   287     1
  285   288     1
  285   292     1
  287   289     1
  287   290     1
  287   291     1
  287   293     1
  287   294     1
  288   293     1
  288   294     1
  289   292     1
  290   292     1
  291   292     1


[ angles ]
    2     1     3     1
    2     1     4     1
    2     1     5     1
    3     1     4     1
    3     1     5     1
    4     1     5     1
    1     5     6     1
    1     5     7     1
    1     5    13     1
    6     5     7     1
    6     5    13     1
    7     5    13     1
    5     7     8     1
    5     7     9     1
    5     7    10     1
    8     7     9     1
    8     7    10     1
    9     7    10     1
    7    10    11     1
    7    10    12     1
   11    10    12     1
    5    13    14     1
    5    13    15     1
   14    13    15     1
   13    15    16     1
   13    15    17     1
   16    15    17     1
   15    17    18     1
   15    17    19     1
   15    17    27     1
   18    17    19     1
   18    17    27     1
   19    17    27     1
   17    19    20     1
   17    19    21     1
   17    19    22     1
   20    19    21     1
   20    19    22     1
   21    19    22     1
   19    22    23     1
   19    22    24     1
   23    22    24     1
   22    24    25     1
   22    24    26     1
   25    24    26     1
   17    27    28     1
   17    27    29     1
   28    27    29     1
   27    29    30     1
   27    29    31     1
   30    29    31     1
   29    31    32     1
   29    31    33     1
   29    31    42     1
   32    31    33     1
   32    31    42     1
   33    31    42     1
   31    33    34     1
   31    33    35     1
   31    33    36     1
   34    33    35     1
   34    33    36     1
   35    33    36     1
   33    36    37     1
   33    36    38     1
   33    36    39     1
   37    36    38     1
   37    36    39     1
   38    36    39     1
   36    39    40     1
   36    39    41     1
   40    39    41     1
   31    42    43     1
   31    42    44     1
   43    42    44     1
   42    44    45     1
   42    44    46     1
   45    44    46     1
   44    46    47     1
   44    46    48     1
   44    46    52     1
   47    46    48     1
   47    46    52     1
   48    46    52     1
   46    48    49     1
   46    48    50     1
   46    48    51     1
   49    48    50     1
   49    48    51     1
   50    48    51     1
   46    52    53     1
   46    52    54     1
   53    52    54     1
   52    54    55     1
   52    54    56     1
   55    54    56     1
   54    56    57     1
   54    56    58     1
   54    56    73     1
   57    56    58     1
   57    56    73     1
   58    56    73     1
   56    58    59     1
   56    58    60     1
   56    58    61     1
   59    58    60     1
   59    58    61     1
   60    58    61     1
   58    61    62     1
   58    61    71     1
   62    61    71     1
   61    62    63     1
   61    62    64     1
   63    62    64     1
   62    64    65     1
   62    64    66     1
   65    64    66     1
   64    66    67     1
   64    66    69     1
   67    66    69     1
   66    67    68     1
   66    69    70     1
   66    69    71     1
   70    69    71     1
   61    71    69     1
   61    71    72     1
   69    71    72     1
   56    73    74     1
   56    73    75     1
   74    73    75     1
   73    75    76     1
   73    75    77     1
   76    75    77     1
   75    77    78     1
   75    77    79     1
   75    77    88     1
   78    77    79     1
   78    77    88     1
   79    77    88     1
   77    79    80     1
   77    79    81     1
   77    79    82     1
   80    79    81     1
   80    79    82     1
   81    79    82     1
   79    82    83     1
   79    82    84     1
   79    82    85     1
   83    82    84     1
   83    82    85     1
   84    82    85     1
   82    85    86     1
   82    85    87     1
   86    85    87     1
   77    88    89     1
   77    88    90     1
   89    88    90     1
   88    90    91     1
   88    90    92     1
   91    90    92     1
   90    92    93     1
   90    92    94     1
   90    92   105     1
   93    92    94     1
   93    92   105     1
   94    92   105     1
   92    94    95     1
   92    94    96     1
   92    94    97     1
   95    94    96     1
   95    94    97     1
   96    94    97     1
   94    97    98     1
   94    97    99     1
   94    97   100     1
   98    97    99     1
   98    97   100     1
   99    97   100     1
   97   100   101     1
  100   101   102     1
  100   101   103     1
  100   101   104     1
  102   101   103     1
  102   101   104     1
  103   101   104     1
   92   105   106     1
   92   105   107     1
  106   105   107     1
  105   107   108     1
  105   107   117     1
  108   107   117     1
  107   108   109     1
  107   108   110     1
  107   108   111     1
  109   108   110     1
  109   108   111     1
  110   108   111     1
  108   111   112     1
  108   111   113     1
  108   111   114     1
  112   111   113     1
  112   111   114     1
  113   111   114     1
  111   114   115     1
  111   114   116     1
  111   114   117     1
  115   114   116     1
  115   114   117     1
  116   114   117     1
  107   117   114     1
  107   117   118     1
  107   117   119     1
  114   117   118     1
  114   117   119     1
  118   117   119     1
  117   119   120     1
  117   119   121     1
  120   119   121     1
  119   121   122     1
  119   121   123     1
  122   121   123     1
  121   123   124     1
  121   123   125     1
  121   123   130     1
  124   123   125     1
  124   123   130     1
  125   123   130     1
  123   125   126     1
  123   125   127     1
  123   125   128     1
  126   125   127     1
  126   125   128     1
  127   125   128     1
  125   128   129     1
  123   130   131     1
  123   130   132     1
  131   130   132     1
  130   132   133     1
  130   132   134     1
  133   132   134     1
  132   134   135     1
  132   134   136     1
  132   134   145     1
  135   134   136     1
  135   134   145     1
  136   134   145     1
  134   136   137     1
  134   136   138     1
  134   136   139     1
  137   136   138     1
  137   136   139     1
  138   136   139     1
  136   139   140     1
  136   139   141     1
  136   139   142     1
  140   139   141     1
  140   139   142     1
  141   139   142     1
  139   142   143     1
  139   142   144     1
  143   142   144     1
  134   145   146     1
  134   145   147     1
  146   145   147     1
  145   147   148     1
  145   147   149     1
  148   147   149     1
  147   149   150     1
  147   149   151     1
  147   149   160     1
  150   149   151     1
  150   149   160     1
  151   149   160     1
  149   151   152     1
  149   151   153     1
  149   151   154     1
  152   151   153     1
  152   151   154     1
  153   151   154     1
  151   154   155     1
  151   154   156     1
  151   154   157     1
  155   154   156     1
  155   154   157     1
  156   154   157     1
  154   157   158     1
  154   157   159     1
  158   157   159     1
  149   160   161     1
  149   160   162     1
  161   160   162     1
  160   162   163     1
  160   162   164     1
  163   162   164     1
  162   164   165     1
  162   164   166     1
  162   164   167     1
  165   164   166     1
  165   164   167     1
  166   164   167     1
  164   167   168     1
  164   167   169     1
  168   167   169     1
  167   169   170     1
  167   169   171     1
  170   169   171     1
  169   171   172     1
  169   171   173     1
  169   171   188     1
  172   171   173     1
  172   171   188     1
  173   171   188     1
  171   173   174     1
  171   173   175     1
  171   173   176     1
  174   173   175     1
  174   173   176     1
  175   173   176     1
  173   176   177     1
  173   176   186     1
  177   176   186     1
  176   177   178     1
  176   177   179     1
  178   177   179     1
  177   179   180     1
  177   179   181     1
  180   179   181     1
  179   181   182     1
  179   181   184     1
  182   181   184     1
  181   182   183     1
  181   184   185     1
  181   184   186     1
  185   184   186     1
  176   186   184     1
  176   186   187     1
  184   186   187     1
  171   188   189     1
  171   188   190     1
  189   188   190     1
  188   190   191     1
  188   190   192     1
  191   190   192     1
  190   192   193     1
  190   192   194     1
  190   192   205     1
  193   192   194     1
  193   192   205     1
  194   192   205     1
  192   194   195     1
  192   194   196     1
  192   194   197     1
  195   194   196     1
  195   194   197     1
  196   194   197     1
  194   197   198     1
  194   197   199     1
  194   197   200     1
  198   197   199     1
  198   197   200     1
  199   197   200     1
  197   200   201     1
  197   200   202     1
  201   200   202     1
  200   202   203     1
  200   202   204     1
  203   202   204     1
  192   205   206     1
  192   205   207     1
  206   205   207     1
  205   207   208     1
  205   207   209     1
  208   207   209     1
  207   209   210     1
  207   209   211     1
  207   209   217     1
  210   209   211     1
  210   209   217     1
  211   209   217     1
  209   211   212     1
  209   211   213     1
  209   211   214     1
  212   211   213     1
  212   211   214     1
  213   211   214     1
  211   214   215     1
  211   214   216     1
  215   214   216     1
  209   217   218     1
  209   217   219     1
  218   217   219     1
  217   219   220     1
  217   219   221     1
  220   219   221     1
  219   221   222     1
  219   221   223     1
  219   221   238     1
  222   221   223     1
  222   221   238     1
  223   221   238     1
  221   223   224     1
  221   223   225     1
  221   223   226     1
  224   223   225     1
  224   223   226     1
  225   223   226     1
  223   226   227     1
  223   226   236     1
  227   226   236     1
  226   227   228     1
  226   227   229     1
  228   227   229     1
  227   229   230     1
  227   229   231     1
  230   229   231     1
  229   231   232     1
  229   231   234     1
  232   231   234     1
  231   232   233     1
  231   234   235     1
  231   234   236     1
  235   234   236     1
  226   236   234     1
  226   236   237     1
  234   236   237     1
  221   238   239     1
  221   238   240     1
  239   238   240     1
  238   240   241     1
  238   240   242     1
  241   240   242     1
  240   242   243     1
  240   242   244     1
  240   242   253     1
  243   242   244     1
  243   242   253     1
  244   242   253     1
  242   244   245     1
  242   244   246     1
  242   244   247     1
  245   244   246     1
  245   244   247     1
  246   244   247     1
  244   247   248     1
  244   247   249     1
  244   247   250     1
  248   247   249     1
  248   247   250     1
  249   247   250     1
  247   250   251     1
  247   250   252     1
  251   250   252     1
  242   253   254     1
  242   253   255     1
  254   253   255     1
  253   255   256     1
  253   255   265     1
  256   255   265     1
  255   256   257     1
  255   256   258     1
  255   256   259     1
  257   256   258     1
  257   256   259     1
  258   256   259     1
  256   259   260     1
  256   259   261     1
  256   259   262     1
  260   259   261     1
  260   259   262     1
  261   259   262     1
  259   262   263     1
  259   262   264     1
  259   262   265     1
  263   262   264     1
  263   262   265     1
  264   262   265     1
  255   265   262     1
  255   265   266     1
  255   265   267     1
  262   265   266     1
  262   265   267     1
  266   265   267     1
  265   267   268     1
  265   267   269     1
  268   267   269     1
  267   269   270     1
  267   269   271     1
  270   269   271     1
  269   271   272     1
  269   271   273     1
  269   271   282     1
  272   271   273     1
  272   271   282     1
  273   271   282     1
  271   273   274     1
  271   273   275     1
  271   273   276     1
  274   273   275     1
  274   273   276     1
  275   273   276     1
  273   276   277     1
  273   276   278     1
  273   276   279     1
  277   276   278     1
  277   276   279     1
  278   276   279     1
  276   279   280     1
  276   279   281     1
  280   279   281     1
  271   282   283     1
  271   282   284     1
  283   282   284     1
  282   284   285     1
  282   284   286     1
  285   284   286     1
  284   286   287     1
  284   286   288     1
  284   286   292     1
  287   286   288     1
  287   286   292     1
  288   286   292     1
  286   288   289     1
  286   288   290     1
  286   288   291     1
  289   288   290     1
  289   288   291     1
  290   288   291     1
  286   292   293     1
  286   292   294     1
  293   292   294     1


[ dihedrals ]
2         1     5     6     9    0.0       0.42007   3
2         1     5     7     9    0.0       0.42007   3
2         1     5    13     9    0.0       0.42007   3
3         1     5     6     9    0.0       0.42007   3
3         1     5     7     9    0.0       0.42007   3
3         1     5    13     9    0.0       0.42007   3
4         1     5     6     9    0.0       0.42007   3
4         1     5     7     9    0.0       0.42007   3
4         1     5    13     9    0.0       0.42007   3
1         5     7     8     9    0.0       0.42007   3
1         5     7     9     9    0.0       0.42007   3
1         5     7    10     9    180.0     7.11622   1
1         5     7    10     9    180.0     3.21434   2
1         5     7    10     9    180.0     0.01836   3
1         5     7    10     9    0.0       1.14148   4
1         5     7    10     9    0.0       0.62569   5
1         5     7    10     9    180.0     0.57448   6
1         5     7    10     9    0.0       0.42007   3
6         5     7     8     9    0.0       0.42007   3
6         5     7     9     9    0.0       0.42007   3
6         5     7    10     9    0.0       0.42007   3
13        5     7     8     9    0.0       0.42007   3
13        5     7     9     9    0.0       0.42007   3
13        5     7    10     9    0.0       0.42007   3
1         5    13    14     9    0.0       0.00000   0
1         5    13    15     9    0.0       0.00000   0
6         5    13    14     9    0.0       0.00000   0
6         5    13    15     9    0.0       0.00000   0
7         5    13    14     9    0.0       0.00000   0
7         5    13    15     9    0.0       0.54009   1
7         5    13    15     9    0.0       0.54009   2
7         5    13    15     9    0.0       1.08018   3
7         5    13    15     9    0.0       0.00000   0
5         7    10    11     9    180.0     0.50228   4
5         7    10    11     9    180.0     0.95596   6
5         7    10    11     9    180.0     2.35749   2
5         7    10    11     9    0.0       0.00000   0
5         7    10    12     9    180.0     0.50228   4
5         7    10    12     9    180.0     0.95596   6
5         7    10    12     9    180.0     2.35749   2
5         7    10    12     9    0.0       0.00000   0
8         7    10    11     9    0.0       0.00000   0
8         7    10    12     9    0.0       0.00000   0
9         7    10    11     9    0.0       0.00000   0
9         7    10    12     9    0.0       0.00000   0
5        13    15    16     9    180.0     6.75112   2
5        13    15    17     9    180.0     6.75112   2
14       13    15    16     9    0.0       5.40089   1
14       13    15    16     9    180.0     6.75112   2
14       13    15    16     9    180.0     6.75112   2
14       13    15    17     9    180.0     6.75112   2
13       15    17    18     9    0.0       0.00000   0
13       15    17    19     9    0.0       1.08018   3
13       15    17    19     9    0.0       5.40089   1
13       15    17    19     9    0.0       5.40089   2
13       15    17    19     9    0.0       0.00000   0
13       15    17    27     9    180.0     0.09182   1
13       15    17    27     9    0.0       0.90465   2
13       15    17    27     9    0.0       1.46905   3
13       15    17    27     9    0.0       0.21604   4
13       15    17    27     9    0.0       0.00000   0
16       15    17    18     9    0.0       0.00000   0
16       15    17    19     9    0.0       0.00000   0
16       15    17    27     9    0.0       0.00000   0
15       17    19    20     9    0.0       0.42007   3
15       17    19    21     9    0.0       0.42007   3
15       17    19    22     9    180.0     1.70128   1
15       17    19    22     9    0.0       0.42007   3
18       17    19    20     9    0.0       0.42007   3
18       17    19    21     9    0.0       0.42007   3
18       17    19    22     9    0.0       0.42007   3
27       17    19    20     9    0.0       0.42007   3
27       17    19    21     9    0.0       0.42007   3
27       17    19    22     9    0.0       0.46097   1
27       17    19    22     9    180.0     1.60866   2
27       17    19    22     9    0.0       0.32000   3
27       17    19    22     9    180.0     1.12662   4
27       17    19    22     9    0.0       0.28138   5
27       17    19    22     9    180.0     0.27199   6
27       17    19    22     9    0.0       0.42007   3
15       17    27    28     9    0.0       0.00000   0
15       17    27    29     9    360.0     0.53199   1
15       17    27    29     9    180.0     3.90215   2
15       17    27    29     9    180.0     1.29352   3
15       17    27    29     9    360.0     0.05158   4
15       17    27    29     9    360.0     0.01080   5
15       17    27    29     9    0.0       0.00000   0
18       17    27    28     9    0.0       2.16036   1
18       17    27    28     9    180.0     0.21604   3
18       17    27    28     9    0.0       0.00000   0
18       17    27    29     9    0.0       0.00000   0
19       17    27    28     9    0.0       0.00000   0
19       17    27    29     9    0.0       0.54009   1
19       17    27    29     9    0.0       0.54009   2
19       17    27    29     9    0.0       1.08018   3
19       17    27    29     9    0.0       0.00000   0
17       19    22    23     9    180.0     2.70045   1
17       19    22    23     9    0.0       0.00000   0
17       19    22    24     9    180.0     2.82548   1
17       19    22    24     9    180.0     0.48878   2
17       19    22    24     9    180.0     0.09559   3
17       19    22    24     9    0.0       0.27086   4
17       19    22    24     9    0.0       0.35052   5
17       19    22    24     9    180.0     0.28639   6
17       19    22    24     9    0.0       0.00000   0
20       19    22    23     9    0.0       2.16036   1
20       19    22    23     9    180.0     0.21604   3
20       19    22    23     9    0.0       0.00000   0
20       19    22    24     9    0.0       0.00000   0
21       19    22    23     9    0.0       2.16036   1
21       19    22    23     9    180.0     0.21604   3
21       19    22    23     9    0.0       0.00000   0
21       19    22    24     9    0.0       0.00000   0
19       22    24    25     9    180.0     6.75112   2
19       22    24    26     9    180.0     6.75112   2
23       22    24    25     9    0.0       5.40089   1
23       22    24    25     9    180.0     6.75112   2
23       22    24    25     9    180.0     6.75112   2
23       22    24    26     9    0.0       5.40089   1
23       22    24    26     9    180.0     6.75112   2
23       22    24    26     9    180.0     6.75112   2
17       27    29    30     9    180.0     6.75112   2
17       27    29    31     9    180.0     6.75112   2
28       27    29    30     9    0.0       5.40089   1
28       27    29    30     9    180.0     6.75112   2
28       27    29    30     9    180.0     6.75112   2
28       27    29    31     9    180.0     6.75112   2
27       29    31    32     9    0.0       0.00000   0
27       29    31    33     9    0.0       1.08018   3
27       29    31    33     9    0.0       5.40089   1
27       29    31    33     9    0.0       5.40089   2
27       29    31    33     9    0.0       0.00000   0
27       29    31    42     9    180.0     0.09182   1
27       29    31    42     9    0.0       0.90465   2
27       29    31    42     9    0.0       1.46905   3
27       29    31    42     9    0.0       0.21604   4
27       29    31    42     9    0.0       0.00000   0
30       29    31    32     9    0.0       0.00000   0
30       29    31    33     9    0.0       0.00000   0
30       29    31    42     9    0.0       0.00000   0
29       31    33    34     9    0.0       0.42007   3
29       31    33    35     9    0.0       0.42007   3
29       31    33    36     9    0.0       0.27004   1
29       31    33    36     9    0.0       0.42007   3
32       31    33    34     9    0.0       0.42007   3
32       31    33    35     9    0.0       0.42007   3
32       31    33    36     9    0.0       0.42007   3
42       31    33    34     9    0.0       0.42007   3
42       31    33    35     9    0.0       0.42007   3
42       31    33    36     9    0.0       0.81013   1
42       31    33    36     9    0.0       0.42007   3
29       31    42    43     9    0.0       0.00000   0
29       31    42    44     9    360.0     0.53199   1
29       31    42    44     9    180.0     3.90215   2
29       31    42    44     9    180.0     1.29352   3
29       31    42    44     9    360.0     0.05158   4
29       31    42    44     9    360.0     0.01080   5
29       31    42    44     9    0.0       0.00000   0
32       31    42    43     9    0.0       2.16036   1
32       31    42    43     9    180.0     0.21604   3
32       31    42    43     9    0.0       0.00000   0
32       31    42    44     9    0.0       0.00000   0
33       31    42    43     9    0.0       0.00000   0
33       31    42    44     9    0.0       0.54009   1
33       31    42    44     9    0.0       0.54009   2
33       31    42    44     9    0.0       1.08018   3
33       31    42    44     9    0.0       0.00000   0
31       33    36    37     9    0.0       0.41857   3
31       33    36    38     9    0.0       0.41857   3
31       33    36    39     9    0.0       0.41857   3
34       33    36    37     9    0.0       0.41857   3
34       33    36    38     9    0.0       0.41857   3
34       33    36    39     9    0.0       0.41857   3
35       33    36    37     9    0.0       0.41857   3
35       33    36    38     9    0.0       0.41857   3
35       33    36    39     9    0.0       0.41857   3
33       36    39    40     9    180.0     1.62027   2
33       36    39    40     9    0.0       0.00000   0
33       36    39    41     9    180.0     1.62027   2
33       36    39    41     9    0.0       0.00000   0
37       36    39    40     9    0.0       0.00000   0
37       36    39    41     9    0.0       0.00000   0
38       36    39    40     9    0.0       0.00000   0
38       36    39    41     9    0.0       0.00000   0
31       42    44    45     9    180.0     6.75112   2
31       42    44    46     9    180.0     6.75112   2
43       42    44    45     9    0.0       5.40089   1
43       42    44    45     9    180.0     6.75112   2
43       42    44    45     9    180.0     6.75112   2
43       42    44    46     9    180.0     6.75112   2
42       44    46    47     9    0.0       0.00000   0
42       44    46    48     9    0.0       1.08018   3
42       44    46    48     9    0.0       5.40089   1
42       44    46    48     9    0.0       5.40089   2
42       44    46    48     9    0.0       0.00000   0
42       44    46    52     9    180.0     0.09182   1
42       44    46    52     9    0.0       0.90465   2
42       44    46    52     9    0.0       1.46905   3
42       44    46    52     9    0.0       0.21604   4
42       44    46    52     9    0.0       0.00000   0
45       44    46    47     9    0.0       0.00000   0
45       44    46    48     9    0.0       0.00000   0
45       44    46    52     9    0.0       0.00000   0
44       46    48    49     9    0.0       0.42007   3
44       46    48    50     9    0.0       0.42007   3
44       46    48    51     9    0.0       0.42007   3
47       46    48    49     9    0.0       0.42007   3
47       46    48    50     9    0.0       0.42007   3
47       46    48    51     9    0.0       0.42007   3
52       46    48    49     9    0.0       0.42007   3
52       46    48    50     9    0.0       0.42007   3
52       46    48    51     9    0.0       0.42007   3
44       46    52    53     9    0.0       0.00000   0
44       46    52    54     9    360.0     0.53199   1
44       46    52    54     9    180.0     3.90215   2
44       46    52    54     9    180.0     1.29352   3
44       46    52    54     9    360.0     0.05158   4
44       46    52    54     9    360.0     0.01080   5
44       46    52    54     9    0.0       0.00000   0
47       46    52    53     9    0.0       2.16036   1
47       46    52    53     9    180.0     0.21604   3
47       46    52    53     9    0.0       0.00000   0
47       46    52    54     9    0.0       0.00000   0
48       46    52    53     9    0.0       0.00000   0
48       46    52    54     9    0.0       0.54009   1
48       46    52    54     9    0.0       0.54009   2
48       46    52    54     9    0.0       1.08018   3
48       46    52    54     9    0.0       0.00000   0
46       52    54    55     9    180.0     6.75112   2
46       52    54    56     9    180.0     6.75112   2
53       52    54    55     9    0.0       5.40089   1
53       52    54    55     9    180.0     6.75112   2
53       52    54    55     9    180.0     6.75112   2
53       52    54    56     9    180.0     6.75112   2
52       54    56    57     9    0.0       0.00000   0
52       54    56    58     9    0.0       1.08018   3
52       54    56    58     9    0.0       5.40089   1
52       54    56    58     9    0.0       5.40089   2
52       54    56    58     9    0.0       0.00000   0
52       54    56    73     9    180.0     0.09182   1
52       54    56    73     9    0.0       0.90465   2
52       54    56    73     9    0.0       1.46905   3
52       54    56    73     9    0.0       0.21604   4
52       54    56    73     9    0.0       0.00000   0
55       54    56    57     9    0.0       0.00000   0
55       54    56    58     9    0.0       0.00000   0
55       54    56    73     9    0.0       0.00000   0
54       56    58    59     9    0.0       0.42007   3
54       56    58    60     9    0.0       0.42007   3
54       56    58    61     9    0.0       0.00000   0
54       56    58    61     9    0.0       0.42007   3
57       56    58    59     9    0.0       0.42007   3
57       56    58    60     9    0.0       0.42007   3
57       56    58    61     9    0.0       0.42007   3
73       56    58    59     9    0.0       0.42007   3
73       56    58    60     9    0.0       0.42007   3
73       56    58    61     9    0.0       1.40423   1
73       56    58    61     9    0.0       0.42007   3
54       56    73    74     9    0.0       0.00000   0
54       56    73    75     9    360.0     0.53199   1
54       56    73    75     9    180.0     3.90215   2
54       56    73    75     9    180.0     1.29352   3
54       56    73    75     9    360.0     0.05158   4
54       56    73    75     9    360.0     0.01080   5
54       56    73    75     9    0.0       0.00000   0
57       56    73    74     9    0.0       2.16036   1
57       56    73    74     9    180.0     0.21604   3
57       56    73    74     9    0.0       0.00000   0
57       56    73    75     9    0.0       0.00000   0
58       56    73    74     9    0.0       0.00000   0
58       56    73    75     9    0.0       0.54009   1
58       56    73    75     9    0.0       0.54009   2
58       56    73    75     9    0.0       1.08018   3
58       56    73    75     9    0.0       0.00000   0
56       58    61    62     9    0.0       0.00000   0
56       58    61    71     9    0.0       0.00000   0
59       58    61    62     9    0.0       0.00000   0
59       58    61    71     9    0.0       0.00000   0
60       58    61    62     9    0.0       0.00000   0
60       58    61    71     9    0.0       0.00000   0
58       61    62    63     9    180.0     9.78912   2
58       61    62    64     9    180.0     9.78912   2
71       61    62    63     9    180.0     9.78912   2
71       61    62    64     9    180.0     9.78912   2
58       61    71    69     9    180.0     9.78912   2
58       61    71    72     9    180.0     9.78912   2
62       61    71    69     9    180.0     9.78912   2
62       61    71    72     9    180.0     9.78912   2
61       62    64    65     9    180.0     9.78912   2
61       62    64    66     9    180.0     9.78912   2
63       62    64    65     9    180.0     9.78912   2
63       62    64    66     9    180.0     9.78912   2
62       64    66    67     9    180.0     9.78912   2
62       64    66    69     9    180.0     9.78912   2
65       64    66    67     9    180.0     9.78912   2
65       64    66    69     9    180.0     9.78912   2
64       66    67    68     9    180.0     6.21103   2
69       66    67    68     9    180.0     6.21103   2
64       66    69    70     9    180.0     9.78912   2
64       66    69    71     9    180.0     9.78912   2
67       66    69    70     9    180.0     9.78912   2
67       66    69    71     9    180.0     9.78912   2
66       69    71    61     9    180.0     9.78912   2
66       69    71    72     9    180.0     9.78912   2
70       69    71    61     9    180.0     9.78912   2
70       69    71    72     9    180.0     9.78912   2
56       73    75    76     9    180.0     6.75112   2
56       73    75    77     9    180.0     6.75112   2
74       73    75    76     9    0.0       5.40089   1
74       73    75    76     9    180.0     6.75112   2
74       73    75    76     9    180.0     6.75112   2
74       73    75    77     9    180.0     6.75112   2
73       75    77    78     9    0.0       0.00000   0
73       75    77    79     9    0.0       1.08018   3
73       75    77    79     9    0.0       5.40089   1
73       75    77    79     9    0.0       5.40089   2
73       75    77    79     9    0.0       0.00000   0
73       75    77    88     9    180.0     0.09182   1
73       75    77    88     9    0.0       0.90465   2
73       75    77    88     9    0.0       1.46905   3
73       75    77    88     9    0.0       0.21604   4
73       75    77    88     9    0.0       0.00000   0
76       75    77    78     9    0.0       0.00000   0
76       75    77    79     9    0.0       0.00000   0
76       75    77    88     9    0.0       0.00000   0
75       77    79    80     9    0.0       0.42007   3
75       77    79    81     9    0.0       0.42007   3
75       77    79    82     9    0.0       0.27004   1
75       77    79    82     9    0.0       0.42007   3
78       77    79    80     9    0.0       0.42007   3
78       77    79    81     9    0.0       0.42007   3
78       77    79    82     9    0.0       0.42007   3
88       77    79    80     9    0.0       0.42007   3
88       77    79    81     9    0.0       0.42007   3
88       77    79    82     9    0.0       0.81013   1
88       77    79    82     9    0.0       0.42007   3
75       77    88    89     9    0.0       0.00000   0
75       77    88    90     9    360.0     0.53199   1
75       77    88    90     9    180.0     3.90215   2
75       77    88    90     9    180.0     1.29352   3
75       77    88    90     9    360.0     0.05158   4
75       77    88    90     9    360.0     0.01080   5
75       77    88    90     9    0.0       0.00000   0
78       77    88    89     9    0.0       2.16036   1
78       77    88    89     9    180.0     0.21604   3
78       77    88    89     9    0.0       0.00000   0
78       77    88    90     9    0.0       0.00000   0
79       77    88    89     9    0.0       0.00000   0
79       77    88    90     9    0.0       0.54009   1
79       77    88    90     9    0.0       0.54009   2
79       77    88    90     9    0.0       1.08018   3
79       77    88    90     9    0.0       0.00000   0
77       79    82    83     9    0.0       0.41857   3
77       79    82    84     9    0.0       0.41857   3
77       79    82    85     9    0.0       0.41857   3
80       79    82    83     9    0.0       0.41857   3
80       79    82    84     9    0.0       0.41857   3
80       79    82    85     9    0.0       0.41857   3
81       79    82    83     9    0.0       0.41857   3
81       79    82    84     9    0.0       0.41857   3
81       79    82    85     9    0.0       0.41857   3
79       82    85    86     9    180.0     1.62027   2
79       82    85    86     9    0.0       0.00000   0
79       82    85    87     9    180.0     1.62027   2
79       82    85    87     9    0.0       0.00000   0
83       82    85    86     9    0.0       0.00000   0
83       82    85    87     9    0.0       0.00000   0
84       82    85    86     9    0.0       0.00000   0
84       82    85    87     9    0.0       0.00000   0
77       88    90    91     9    180.0     6.75112   2
77       88    90    92     9    180.0     6.75112   2
89       88    90    91     9    0.0       5.40089   1
89       88    90    91     9    180.0     6.75112   2
89       88    90    91     9    180.0     6.75112   2
89       88    90    92     9    180.0     6.75112   2
88       90    92    93     9    0.0       0.00000   0
88       90    92    94     9    0.0       1.08018   3
88       90    92    94     9    0.0       5.40089   1
88       90    92    94     9    0.0       5.40089   2
88       90    92    94     9    0.0       0.00000   0
88       90    92   105     9    180.0     0.09182   1
88       90    92   105     9    0.0       0.90465   2
88       90    92   105     9    0.0       1.46905   3
88       90    92   105     9    0.0       0.21604   4
88       90    92   105     9    0.0       0.00000   0
91       90    92    93     9    0.0       0.00000   0
91       90    92    94     9    0.0       0.00000   0
91       90    92   105     9    0.0       0.00000   0
90       92    94    95     9    0.0       0.42007   3
90       92    94    96     9    0.0       0.42007   3
90       92    94    97     9    0.0       0.27004   1
90       92    94    97     9    0.0       0.42007   3
93       92    94    95     9    0.0       0.42007   3
93       92    94    96     9    0.0       0.42007   3
93       92    94    97     9    0.0       0.42007   3
105      92    94    95     9    0.0       0.42007   3
105      92    94    96     9    0.0       0.42007   3
105      92    94    97     9    0.0       0.81013   1
105      92    94    97     9    0.0       0.42007   3
90       92   105   106     9    0.0       0.00000   0
90       92   105   107     9    360.0     0.53199   1
90       92   105   107     9    180.0     3.90215   2
90       92   105   107     9    180.0     1.29352   3
90       92   105   107     9    360.0     0.05158   4
90       92   105   107     9    360.0     0.01080   5
90       92   105   107     9    0.0       0.00000   0
93       92   105   106     9    0.0       2.16036   1
93       92   105   106     9    180.0     0.21604   3
93       92   105   106     9    0.0       0.00000   0
93       92   105   107     9    0.0       0.00000   0
94       92   105   106     9    0.0       0.00000   0
94       92   105   107     9    0.0       0.54009   1
94       92   105   107     9    0.0       0.54009   2
94       92   105   107     9    0.0       1.08018   3
94       92   105   107     9    0.0       0.00000   0
92       94    97    98     9    0.0       0.41857   3
92       94    97    99     9    0.0       0.41857   3
92       94    97   100     9    0.0       0.00000   0
92       94    97   100     9    0.0       0.41857   3
95       94    97    98     9    0.0       0.41857   3
95       94    97    99     9    0.0       0.41857   3
95       94    97   100     9    0.0       0.41857   3
96       94    97    98     9    0.0       0.41857   3
96       94    97    99     9    0.0       0.41857   3
96       94    97   100     9    0.0       0.41857   3
94       97   100   101     9    0.0       0.89925   3
98       97   100   101     9    0.0       0.89925   3
99       97   100   101     9    0.0       0.89925   3
97      100   101   102     9    0.0       0.90015   3
97      100   101   103     9    0.0       0.90015   3
97      100   101   104     9    0.0       0.90015   3
92      105   107   108     9    180.0     6.75112   2
92      105   107   117     9    180.0     6.75112   2
106     105   107   108     9    180.0     6.75112   2
106     105   107   117     9    180.0     6.75112   2
105     107   108   109     9    0.0       0.00000   0
105     107   108   110     9    0.0       0.00000   0
105     107   108   111     9    0.0       1.08018   3
105     107   108   111     9    0.0       5.40089   1
105     107   108   111     9    0.0       5.40089   2
105     107   108   111     9    0.0       0.00000   0
117     107   108   109     9    0.0       0.00000   0
117     107   108   110     9    0.0       0.00000   0
117     107   108   111     9    0.0       0.00000   0
105     107   117   114     9    0.0       5.40089   1
105     107   117   114     9    0.0       5.40089   2
105     107   117   114     9    0.0       1.08018   3
105     107   117   114     9    0.0       0.00000   0
105     107   117   118     9    0.0       0.00000   0
105     107   117   119     9    0.0       0.72912   2
105     107   117   119     9    0.0       1.13419   3
105     107   117   119     9    0.0       0.00000   0
108     107   117   114     9    0.0       0.00000   0
108     107   117   118     9    0.0       0.00000   0
108     107   117   119     9    0.0       0.00000   0
107     108   111   112     9    0.0       0.42007   3
107     108   111   113     9    0.0       0.42007   3
107     108   111   114     9    0.0       0.42007   3
109     108   111   112     9    0.0       0.42007   3
109     108   111   113     9    0.0       0.42007   3
109     108   111   114     9    0.0       0.42007   3
110     108   111   112     9    0.0       0.42007   3
110     108   111   113     9    0.0       0.42007   3
110     108   111   114     9    0.0       0.42007   3
108     111   114   115     9    0.0       0.43207   3
108     111   114   115     9    0.0       0.42007   3
108     111   114   116     9    0.0       0.43207   3
108     111   114   116     9    0.0       0.42007   3
108     111   114   117     9    0.0       0.48608   3
108     111   114   117     9    180.0     0.54009   1
108     111   114   117     9    180.0     0.67511   2
108     111   114   117     9    0.0       0.42007   3
112     111   114   115     9    0.0       0.40507   3
112     111   114   115     9    0.0       0.40507   3
112     111   114   115     9    0.0       0.42007   3
112     111   114   116     9    0.0       0.40507   3
112     111   114   116     9    0.0       0.40507   3
112     111   114   116     9    0.0       0.42007   3
112     111   114   117     9    0.0       0.43207   3
112     111   114   117     9    0.0       0.42007   3
113     111   114   115     9    0.0       0.40507   3
113     111   114   115     9    0.0       0.40507   3
113     111   114   115     9    0.0       0.42007   3
113     111   114   116     9    0.0       0.40507   3
113     111   114   116     9    0.0       0.40507   3
113     111   114   116     9    0.0       0.42007   3
113     111   114   117     9    0.0       0.43207   3
113     111   114   117     9    0.0       0.42007   3
111     114   117   107     9    0.0       0.42007   3
111     114   117   118     9    0.0       0.42007   3
111     114   117   119     9    0.0       0.42007   3
115     114   117   107     9    0.0       0.42007   3
115     114   117   118     9    0.0       0.42007   3
115     114   117   119     9    0.0       0.42007   3
116     114   117   107     9    0.0       0.42007   3
116     114   117   118     9    0.0       0.42007   3
116     114   117   119     9    0.0       0.42007   3
107     117   119   120     9    0.0       0.00000   0
107     117   119   121     9    180.0     1.21520   1
107     117   119   121     9    180.0     4.26671   2
107     117   119   121     9    180.0     1.48525   3
107     117   119   121     9    0.0       0.00000   0
114     117   119   120     9    0.0       0.00000   0
114     117   119   121     9    0.0       0.54009   1
114     117   119   121     9    0.0       0.54009   2
114     117   119   121     9    0.0       1.08018   3
114     117   119   121     9    0.0       0.00000   0
118     117   119   120     9    0.0       2.16036   1
118     117   119   120     9    180.0     0.21604   3
118     117   119   120     9    0.0       0.00000   0
118     117   119   121     9    0.0       0.00000   0
117     119   121   122     9    180.0     6.75112   2
117     119   121   123     9    180.0     6.75112   2
120     119   121   122     9    0.0       5.40089   1
120     119   121   122     9    180.0     6.75112   2
120     119   121   122     9    180.0     6.75112   2
120     119   121   123     9    180.0     6.75112   2
119     121   123   124     9    0.0       0.00000   0
119     121   123   125     9    0.0       5.40089   1
119     121   123   125     9    0.0       5.40089   2
119     121   123   125     9    0.0       1.08018   3
119     121   123   125     9    0.0       0.00000   0
119     121   123   130     9    180.0     0.09182   1
119     121   123   130     9    0.0       0.90465   2
119     121   123   130     9    0.0       1.46905   3
119     121   123   130     9    0.0       0.21604   4
119     121   123   130     9    0.0       0.00000   0
122     121   123   124     9    0.0       0.00000   0
122     121   123   125     9    0.0       0.00000   0
122     121   123   130     9    0.0       0.00000   0
121     123   125   126     9    0.0       0.41857   3
121     123   125   127     9    0.0       0.41857   3
121     123   125   128     9    180.0     0.67511   1
121     123   125   128     9    0.0       0.41857   3
124     123   125   126     9    0.0       0.41857   3
124     123   125   127     9    0.0       0.41857   3
124     123   125   128     9    0.0       0.41857   3
130     123   125   126     9    0.0       0.41857   3
130     123   125   127     9    0.0       0.41857   3
130     123   125   128     9    180.0     2.43040   1
130     123   125   128     9    0.0       0.41857   3
121     123   130   131     9    0.0       0.00000   0
121     123   130   132     9    360.0     0.53199   1
121     123   130   132     9    180.0     3.90215   2
121     123   130   132     9    180.0     1.29352   3
121     123   130   132     9    360.0     0.05158   4
121     123   130   132     9    360.0     0.01080   5
121     123   130   132     9    0.0       0.00000   0
124     123   130   131     9    0.0       2.16036   1
124     123   130   131     9    180.0     0.21604   3
124     123   130   131     9    0.0       0.00000   0
124     123   130   132     9    0.0       0.00000   0
125     123   130   131     9    0.0       0.00000   0
125     123   130   132     9    0.0       0.54009   1
125     123   130   132     9    0.0       0.54009   2
125     123   130   132     9    0.0       1.08018   3
125     123   130   132     9    0.0       0.00000   0
123     125   128   129     9    0.0       0.16203   2
123     125   128   129     9    0.0       0.54009   3
123     125   128   129     9    0.0       2.02534   1
123     125   128   129     9    0.0       0.45098   3
126     125   128   129     9    0.0       0.45098   3
127     125   128   129     9    0.0       0.45098   3
123     130   132   133     9    180.0     6.75112   2
123     130   132   134     9    180.0     6.75112   2
131     130   132   133     9    0.0       5.40089   1
131     130   132   133     9    180.0     6.75112   2
131     130   132   133     9    180.0     6.75112   2
131     130   132   134     9    180.0     6.75112   2
130     132   134   135     9    0.0       0.00000   0
130     132   134   136     9    0.0       1.08018   3
130     132   134   136     9    0.0       5.40089   1
130     132   134   136     9    0.0       5.40089   2
130     132   134   136     9    0.0       0.00000   0
130     132   134   145     9    180.0     0.09182   1
130     132   134   145     9    0.0       0.90465   2
130     132   134   145     9    0.0       1.46905   3
130     132   134   145     9    0.0       0.21604   4
130     132   134   145     9    0.0       0.00000   0
133     132   134   135     9    0.0       0.00000   0
133     132   134   136     9    0.0       0.00000   0
133     132   134   145     9    0.0       0.00000   0
132     134   136   137     9    0.0       0.42007   3
132     134   136   138     9    0.0       0.42007   3
132     134   136   139     9    0.0       0.27004   1
132     134   136   139     9    0.0       0.42007   3
135     134   136   137     9    0.0       0.42007   3
135     134   136   138     9    0.0       0.42007   3
135     134   136   139     9    0.0       0.42007   3
145     134   136   137     9    0.0       0.42007   3
145     134   136   138     9    0.0       0.42007   3
145     134   136   139     9    0.0       0.81013   1
145     134   136   139     9    0.0       0.42007   3
132     134   145   146     9    0.0       0.00000   0
132     134   145   147     9    360.0     0.53199   1
132     134   145   147     9    180.0     3.90215   2
132     134   145   147     9    180.0     1.29352   3
132     134   145   147     9    360.0     0.05158   4
132     134   145   147     9    360.0     0.01080   5
132     134   145   147     9    0.0       0.00000   0
135     134   145   146     9    0.0       2.16036   1
135     134   145   146     9    180.0     0.21604   3
135     134   145   146     9    0.0       0.00000   0
135     134   145   147     9    0.0       0.00000   0
136     134   145   146     9    0.0       0.00000   0
136     134   145   147     9    0.0       0.54009   1
136     134   145   147     9    0.0       0.54009   2
136     134   145   147     9    0.0       1.08018   3
136     134   145   147     9    0.0       0.00000   0
134     136   139   140     9    0.0       0.41857   3
134     136   139   141     9    0.0       0.41857   3
134     136   139   142     9    0.0       0.41857   3
137     136   139   140     9    0.0       0.41857   3
137     136   139   141     9    0.0       0.41857   3
137     136   139   142     9    0.0       0.41857   3
138     136   139   140     9    0.0       0.41857   3
138     136   139   141     9    0.0       0.41857   3
138     136   139   142     9    0.0       0.41857   3
136     139   142   143     9    180.0     1.62027   2
136     139   142   143     9    0.0       0.00000   0
136     139   142   144     9    180.0     1.62027   2
136     139   142   144     9    0.0       0.00000   0
140     139   142   143     9    0.0       0.00000   0
140     139   142   144     9    0.0       0.00000   0
141     139   142   143     9    0.0       0.00000   0
141     139   142   144     9    0.0       0.00000   0
134     145   147   148     9    180.0     6.75112   2
134     145   147   149     9    180.0     6.75112   2
146     145   147   148     9    0.0       5.40089   1
146     145   147   148     9    180.0     6.75112   2
146     145   147   148     9    180.0     6.75112   2
146     145   147   149     9    180.0     6.75112   2
145     147   149   150     9    0.0       0.00000   0
145     147   149   151     9    0.0       1.08018   3
145     147   149   151     9    0.0       5.40089   1
145     147   149   151     9    0.0       5.40089   2
145     147   149   151     9    0.0       0.00000   0
145     147   149   160     9    180.0     0.09182   1
145     147   149   160     9    0.0       0.90465   2
145     147   149   160     9    0.0       1.46905   3
145     147   149   160     9    0.0       0.21604   4
145     147   149   160     9    0.0       0.00000   0
148     147   149   150     9    0.0       0.00000   0
148     147   149   151     9    0.0       0.00000   0
148     147   149   160     9    0.0       0.00000   0
147     149   151   152     9    0.0       0.42007   3
147     149   151   153     9    0.0       0.42007   3
147     149   151   154     9    0.0       0.27004   1
147     149   151   154     9    0.0       0.42007   3
150     149   151   152     9    0.0       0.42007   3
150     149   151   153     9    0.0       0.42007   3
150     149   151   154     9    0.0       0.42007   3
160     149   151   152     9    0.0       0.42007   3
160     149   151   153     9    0.0       0.42007   3
160     149   151   154     9    0.0       0.81013   1
160     149   151   154     9    0.0       0.42007   3
147     149   160   161     9    0.0       0.00000   0
147     149   160   162     9    360.0     0.53199   1
147     149   160   162     9    180.0     3.90215   2
147     149   160   162     9    180.0     1.29352   3
147     149   160   162     9    360.0     0.05158   4
147     149   160   162     9    360.0     0.01080   5
147     149   160   162     9    0.0       0.00000   0
150     149   160   161     9    0.0       2.16036   1
150     149   160   161     9    180.0     0.21604   3
150     149   160   161     9    0.0       0.00000   0
150     149   160   162     9    0.0       0.00000   0
151     149   160   161     9    0.0       0.00000   0
151     149   160   162     9    0.0       0.54009   1
151     149   160   162     9    0.0       0.54009   2
151     149   160   162     9    0.0       1.08018   3
151     149   160   162     9    0.0       0.00000   0
149     151   154   155     9    0.0       0.41857   3
149     151   154   156     9    0.0       0.41857   3
149     151   154   157     9    0.0       0.41857   3
152     151   154   155     9    0.0       0.41857   3
152     151   154   156     9    0.0       0.41857   3
152     151   154   157     9    0.0       0.41857   3
153     151   154   155     9    0.0       0.41857   3
153     151   154   156     9    0.0       0.41857   3
153     151   154   157     9    0.0       0.41857   3
151     154   157   158     9    180.0     1.62027   2
151     154   157   158     9    0.0       0.00000   0
151     154   157   159     9    180.0     1.62027   2
151     154   157   159     9    0.0       0.00000   0
155     154   157   158     9    0.0       0.00000   0
155     154   157   159     9    0.0       0.00000   0
156     154   157   158     9    0.0       0.00000   0
156     154   157   159     9    0.0       0.00000   0
149     160   162   163     9    180.0     6.75112   2
149     160   162   164     9    180.0     6.75112   2
161     160   162   163     9    0.0       5.40089   1
161     160   162   163     9    180.0     6.75112   2
161     160   162   163     9    180.0     6.75112   2
161     160   162   164     9    180.0     6.75112   2
160     162   164   165     9    0.0       0.00000   0
160     162   164   166     9    0.0       0.00000   0
160     162   164   167     9    0.0       0.22762   1
160     162   164   167     9    0.0       1.02971   2
160     162   164   167     9    180.0     0.05409   3
160     162   164   167     9    0.0       0.20909   4
160     162   164   167     9    0.0       0.00000   0
163     162   164   165     9    0.0       0.00000   0
163     162   164   166     9    0.0       0.00000   0
163     162   164   167     9    0.0       0.00000   0
162     164   167   168     9    0.0       0.00000   0
162     164   167   169     9    180.0     1.73906   1
162     164   167   169     9    180.0     4.31572   2
162     164   167   169     9    180.0     1.07857   3
162     164   167   169     9    0.0       0.20279   4
162     164   167   169     9    0.0       0.00000   0
165     164   167   168     9    0.0       2.16036   1
165     164   167   168     9    180.0     0.21604   3
165     164   167   168     9    0.0       0.00000   0
165     164   167   169     9    0.0       0.00000   0
166     164   167   168     9    0.0       2.16036   1
166     164   167   168     9    180.0     0.21604   3
166     164   167   168     9    0.0       0.00000   0
166     164   167   169     9    0.0       0.00000   0
164     167   169   170     9    180.0     6.75112   2
164     167   169   171     9    180.0     6.75112   2
168     167   169   170     9    0.0       5.40089   1
168     167   169   170     9    180.0     6.75112   2
168     167   169   170     9    180.0     6.75112   2
168     167   169   171     9    180.0     6.75112   2
167     169   171   172     9    0.0       0.00000   0
167     169   171   173     9    0.0       1.08018   3
167     169   171   173     9    0.0       5.40089   1
167     169   171   173     9    0.0       5.40089   2
167     169   171   173     9    0.0       0.00000   0
167     169   171   188     9    180.0     0.09182   1
167     169   171   188     9    0.0       0.90465   2
167     169   171   188     9    0.0       1.46905   3
167     169   171   188     9    0.0       0.21604   4
167     169   171   188     9    0.0       0.00000   0
170     169   171   172     9    0.0       0.00000   0
170     169   171   173     9    0.0       0.00000   0
170     169   171   188     9    0.0       0.00000   0
169     171   173   174     9    0.0       0.42007   3
169     171   173   175     9    0.0       0.42007   3
169     171   173   176     9    0.0       0.00000   0
169     171   173   176     9    0.0       0.42007   3
172     171   173   174     9    0.0       0.42007   3
172     171   173   175     9    0.0       0.42007   3
172     171   173   176     9    0.0       0.42007   3
188     171   173   174     9    0.0       0.42007   3
188     171   173   175     9    0.0       0.42007   3
188     171   173   176     9    0.0       1.40423   1
188     171   173   176     9    0.0       0.42007   3
169     171   188   189     9    0.0       0.00000   0
169     171   188   190     9    360.0     0.53199   1
169     171   188   190     9    180.0     3.90215   2
169     171   188   190     9    180.0     1.29352   3
169     171   188   190     9    360.0     0.05158   4
169     171   188   190     9    360.0     0.01080   5
169     171   188   190     9    0.0       0.00000   0
172     171   188   189     9    0.0       2.16036   1
172     171   188   189     9    180.0     0.21604   3
172     171   188   189     9    0.0       0.00000   0
172     171   188   190     9    0.0       0.00000   0
173     171   188   189     9    0.0       0.00000   0
173     171   188   190     9    0.0       0.54009   1
173     171   188   190     9    0.0       0.54009   2
173     171   188   190     9    0.0       1.08018   3
173     171   188   190     9    0.0       0.00000   0
171     173   176   177     9    0.0       0.00000   0
171     173   176   186     9    0.0       0.00000   0
174     173   176   177     9    0.0       0.00000   0
174     173   176   186     9    0.0       0.00000   0
175     173   176   177     9    0.0       0.00000   0
175     173   176   186     9    0.0       0.00000   0
173     176   177   178     9    180.0     9.78912   2
173     176   177   179     9    180.0     9.78912   2
186     176   177   178     9    180.0     9.78912   2
186     176   177   179     9    180.0     9.78912   2
173     176   186   184     9    180.0     9.78912   2
173     176   186   187     9    180.0     9.78912   2
177     176   186   184     9    180.0     9.78912   2
177     176   186   187     9    180.0     9.78912   2
176     177   179   180     9    180.0     9.78912   2
176     177   179   181     9    180.0     9.78912   2
178     177   179   180     9    180.0     9.78912   2
178     177   179   181     9    180.0     9.78912   2
177     179   181   182     9    180.0     9.78912   2
177     179   181   184     9    180.0     9.78912   2
180     179   181   182     9    180.0     9.78912   2
180     179   181   184     9    180.0     9.78912   2
179     181   182   183     9    180.0     6.21103   2
184     181   182   183     9    180.0     6.21103   2
179     181   184   185     9    180.0     9.78912   2
179     181   184   186     9    180.0     9.78912   2
182     181   184   185     9    180.0     9.78912   2
182     181   184   186     9    180.0     9.78912   2
181     184   186   176     9    180.0     9.78912   2
181     184   186   187     9    180.0     9.78912   2
185     184   186   176     9    180.0     9.78912   2
185     184   186   187     9    180.0     9.78912   2
171     188   190   191     9    180.0     6.75112   2
171     188   190   192     9    180.0     6.75112   2
189     188   190   191     9    0.0       5.40089   1
189     188   190   191     9    180.0     6.75112   2
189     188   190   191     9    180.0     6.75112   2
189     188   190   192     9    180.0     6.75112   2
188     190   192   193     9    0.0       0.00000   0
188     190   192   194     9    0.0       1.08018   3
188     190   192   194     9    0.0       5.40089   1
188     190   192   194     9    0.0       5.40089   2
188     190   192   194     9    0.0       0.00000   0
188     190   192   205     9    180.0     0.09182   1
188     190   192   205     9    0.0       0.90465   2
188     190   192   205     9    0.0       1.46905   3
188     190   192   205     9    0.0       0.21604   4
188     190   192   205     9    0.0       0.00000   0
191     190   192   193     9    0.0       0.00000   0
191     190   192   194     9    0.0       0.00000   0
191     190   192   205     9    0.0       0.00000   0
190     192   194   195     9    0.0       0.42007   3
190     192   194   196     9    0.0       0.42007   3
190     192   194   197     9    0.0       0.27004   1
190     192   194   197     9    0.0       0.42007   3
193     192   194   195     9    0.0       0.42007   3
193     192   194   196     9    0.0       0.42007   3
193     192   194   197     9    0.0       0.42007   3
205     192   194   195     9    0.0       0.42007   3
205     192   194   196     9    0.0       0.42007   3
205     192   194   197     9    0.0       0.81013   1
205     192   194   197     9    0.0       0.42007   3
190     192   205   206     9    0.0       0.00000   0
190     192   205   207     9    360.0     0.53199   1
190     192   205   207     9    180.0     3.90215   2
190     192   205   207     9    180.0     1.29352   3
190     192   205   207     9    360.0     0.05158   4
190     192   205   207     9    360.0     0.01080   5
190     192   205   207     9    0.0       0.00000   0
193     192   205   206     9    0.0       2.16036   1
193     192   205   206     9    180.0     0.21604   3
193     192   205   206     9    0.0       0.00000   0
193     192   205   207     9    0.0       0.00000   0
194     192   205   206     9    0.0       0.00000   0
194     192   205   207     9    0.0       0.54009   1
194     192   205   207     9    0.0       0.54009   2
194     192   205   207     9    0.0       1.08018   3
194     192   205   207     9    0.0       0.00000   0
192     194   197   198     9    0.0       0.41857   3
192     194   197   199     9    0.0       0.41857   3
192     194   197   200     9    0.0       0.41857   3
195     194   197   198     9    0.0       0.41857   3
195     194   197   199     9    0.0       0.41857   3
195     194   197   200     9    0.0       0.41857   3
196     194   197   198     9    0.0       0.41857   3
196     194   197   199     9    0.0       0.41857   3
196     194   197   200     9    0.0       0.41857   3
194     197   200   201     9    180.0     1.62027   2
194     197   200   201     9    0.0       0.00000   0
194     197   200   202     9    0.0       0.00000   0
198     197   200   201     9    0.0       0.00000   0
198     197   200   202     9    0.0       0.00000   0
199     197   200   201     9    0.0       0.00000   0
199     197   200   202     9    0.0       0.00000   0
197     200   202   203     9    180.0     6.75112   2
197     200   202   204     9    180.0     6.75112   2
201     200   202   203     9    0.0       5.40089   1
201     200   202   203     9    180.0     6.75112   2
201     200   202   203     9    180.0     6.75112   2
201     200   202   204     9    0.0       5.40089   1
201     200   202   204     9    180.0     6.75112   2
201     200   202   204     9    180.0     6.75112   2
192     205   207   208     9    180.0     6.75112   2
192     205   207   209     9    180.0     6.75112   2
206     205   207   208     9    0.0       5.40089   1
206     205   207   208     9    180.0     6.75112   2
206     205   207   208     9    180.0     6.75112   2
206     205   207   209     9    180.0     6.75112   2
205     207   209   210     9    0.0       0.00000   0
205     207   209   211     9    0.0       1.08018   3
205     207   209   211     9    0.0       5.40089   1
205     207   209   211     9    0.0       5.40089   2
205     207   209   211     9    0.0       0.00000   0
205     207   209   217     9    180.0     0.09182   1
205     207   209   217     9    0.0       0.90465   2
205     207   209   217     9    0.0       1.46905   3
205     207   209   217     9    0.0       0.21604   4
205     207   209   217     9    0.0       0.00000   0
208     207   209   210     9    0.0       0.00000   0
208     207   209   211     9    0.0       0.00000   0
208     207   209   217     9    0.0       0.00000   0
207     209   211   212     9    0.0       0.42007   3
207     209   211   213     9    0.0       0.42007   3
207     209   211   214     9    180.0     7.77998   1
207     209   211   214     9    180.0     3.27024   2
207     209   211   214     9    0.0       0.16743   3
207     209   211   214     9    0.0       0.66161   4
207     209   211   214     9    0.0       0.35376   5
207     209   211   214     9    180.0     0.38346   6
207     209   211   214     9    0.0       0.42007   3
210     209   211   212     9    0.0       0.42007   3
210     209   211   213     9    0.0       0.42007   3
210     209   211   214     9    0.0       0.42007   3
217     209   211   212     9    0.0       0.42007   3
217     209   211   213     9    0.0       0.42007   3
217     209   211   214     9    0.0       0.42007   3
207     209   217   218     9    0.0       0.00000   0
207     209   217   219     9    360.0     0.53199   1
207     209   217   219     9    180.0     3.90215   2
207     209   217   219     9    180.0     1.29352   3
207     209   217   219     9    360.0     0.05158   4
207     209   217   219     9    360.0     0.01080   5
207     209   217   219     9    0.0       0.00000   0
210     209   217   218     9    0.0       2.16036   1
210     209   217   218     9    180.0     0.21604   3
210     209   217   218     9    0.0       0.00000   0
210     209   217   219     9    0.0       0.00000   0
211     209   217   218     9    0.0       0.00000   0
211     209   217   219     9    0.0       0.54009   1
211     209   217   219     9    0.0       0.54009   2
211     209   217   219     9    0.0       1.08018   3
211     209   217   219     9    0.0       0.00000   0
209     211   214   215     9    180.0     0.50228   4
209     211   214   215     9    180.0     0.95596   6
209     211   214   215     9    180.0     2.35749   2
209     211   214   215     9    0.0       0.00000   0
209     211   214   216     9    180.0     0.50228   4
209     211   214   216     9    180.0     0.95596   6
209     211   214   216     9    180.0     2.35749   2
209     211   214   216     9    0.0       0.00000   0
212     211   214   215     9    0.0       0.00000   0
212     211   214   216     9    0.0       0.00000   0
213     211   214   215     9    0.0       0.00000   0
213     211   214   216     9    0.0       0.00000   0
209     217   219   220     9    180.0     6.75112   2
209     217   219   221     9    180.0     6.75112   2
218     217   219   220     9    0.0       5.40089   1
218     217   219   220     9    180.0     6.75112   2
218     217   219   220     9    180.0     6.75112   2
218     217   219   221     9    180.0     6.75112   2
217     219   221   222     9    0.0       0.00000   0
217     219   221   223     9    0.0       1.08018   3
217     219   221   223     9    0.0       5.40089   1
217     219   221   223     9    0.0       5.40089   2
217     219   221   223     9    0.0       0.00000   0
217     219   221   238     9    180.0     0.09182   1
217     219   221   238     9    0.0       0.90465   2
217     219   221   238     9    0.0       1.46905   3
217     219   221   238     9    0.0       0.21604   4
217     219   221   238     9    0.0       0.00000   0
220     219   221   222     9    0.0       0.00000   0
220     219   221   223     9    0.0       0.00000   0
220     219   221   238     9    0.0       0.00000   0
219     221   223   224     9    0.0       0.42007   3
219     221   223   225     9    0.0       0.42007   3
219     221   223   226     9    0.0       0.00000   0
219     221   223   226     9    0.0       0.42007   3
222     221   223   224     9    0.0       0.42007   3
222     221   223   225     9    0.0       0.42007   3
222     221   223   226     9    0.0       0.42007   3
238     221   223   224     9    0.0       0.42007   3
238     221   223   225     9    0.0       0.42007   3
238     221   223   226     9    0.0       1.40423   1
238     221   223   226     9    0.0       0.42007   3
219     221   238   239     9    0.0       0.00000   0
219     221   238   240     9    360.0     0.53199   1
219     221   238   240     9    180.0     3.90215   2
219     221   238   240     9    180.0     1.29352   3
219     221   238   240     9    360.0     0.05158   4
219     221   238   240     9    360.0     0.01080   5
219     221   238   240     9    0.0       0.00000   0
222     221   238   239     9    0.0       2.16036   1
222     221   238   239     9    180.0     0.21604   3
222     221   238   239     9    0.0       0.00000   0
222     221   238   240     9    0.0       0.00000   0
223     221   238   239     9    0.0       0.00000   0
223     221   238   240     9    0.0       0.54009   1
223     221   238   240     9    0.0       0.54009   2
223     221   238   240     9    0.0       1.08018   3
223     221   238   240     9    0.0       0.00000   0
221     223   226   227     9    0.0       0.00000   0
221     223   226   236     9    0.0       0.00000   0
224     223   226   227     9    0.0       0.00000   0
224     223   226   236     9    0.0       0.00000   0
225     223   226   227     9    0.0       0.00000   0
225     223   226   236     9    0.0       0.00000   0
223     226   227   228     9    180.0     9.78912   2
223     226   227   229     9    180.0     9.78912   2
236     226   227   228     9    180.0     9.78912   2
236     226   227   229     9    180.0     9.78912   2
223     226   236   234     9    180.0     9.78912   2
223     226   236   237     9    180.0     9.78912   2
227     226   236   234     9    180.0     9.78912   2
227     226   236   237     9    180.0     9.78912   2
226     227   229   230     9    180.0     9.78912   2
226     227   229   231     9    180.0     9.78912   2
228     227   229   230     9    180.0     9.78912   2
228     227   229   231     9    180.0     9.78912   2
227     229   231   232     9    180.0     9.78912   2
227     229   231   234     9    180.0     9.78912   2
230     229   231   232     9    180.0     9.78912   2
230     229   231   234     9    180.0     9.78912   2
229     231   232   233     9    180.0     6.21103   2
234     231   232   233     9    180.0     6.21103   2
229     231   234   235     9    180.0     9.78912   2
229     231   234   236     9    180.0     9.78912   2
232     231   234   235     9    180.0     9.78912   2
232     231   234   236     9    180.0     9.78912   2
231     234   236   226     9    180.0     9.78912   2
231     234   236   237     9    180.0     9.78912   2
235     234   236   226     9    180.0     9.78912   2
235     234   236   237     9    180.0     9.78912   2
221     238   240   241     9    180.0     6.75112   2
221     238   240   242     9    180.0     6.75112   2
239     238   240   241     9    0.0       5.40089   1
239     238   240   241     9    180.0     6.75112   2
239     238   240   241     9    180.0     6.75112   2
239     238   240   242     9    180.0     6.75112   2
238     240   242   243     9    0.0       0.00000   0
238     240   242   244     9    0.0       1.08018   3
238     240   242   244     9    0.0       5.40089   1
238     240   242   244     9    0.0       5.40089   2
238     240   242   244     9    0.0       0.00000   0
238     240   242   253     9    180.0     0.09182   1
238     240   242   253     9    0.0       0.90465   2
238     240   242   253     9    0.0       1.46905   3
238     240   242   253     9    0.0       0.21604   4
238     240   242   253     9    0.0       0.00000   0
241     240   242   243     9    0.0       0.00000   0
241     240   242   244     9    0.0       0.00000   0
241     240   242   253     9    0.0       0.00000   0
240     242   244   245     9    0.0       0.42007   3
240     242   244   246     9    0.0       0.42007   3
240     242   244   247     9    0.0       0.27004   1
240     242   244   247     9    0.0       0.42007   3
243     242   244   245     9    0.0       0.42007   3
243     242   244   246     9    0.0       0.42007   3
243     242   244   247     9    0.0       0.42007   3
253     242   244   245     9    0.0       0.42007   3
253     242   244   246     9    0.0       0.42007   3
253     242   244   247     9    0.0       0.81013   1
253     242   244   247     9    0.0       0.42007   3
240     242   253   254     9    0.0       0.00000   0
240     242   253   255     9    360.0     0.53199   1
240     242   253   255     9    180.0     3.90215   2
240     242   253   255     9    180.0     1.29352   3
240     242   253   255     9    360.0     0.05158   4
240     242   253   255     9    360.0     0.01080   5
240     242   253   255     9    0.0       0.00000   0
243     242   253   254     9    0.0       2.16036   1
243     242   253   254     9    180.0     0.21604   3
243     242   253   254     9    0.0       0.00000   0
243     242   253   255     9    0.0       0.00000   0
244     242   253   254     9    0.0       0.00000   0
244     242   253   255     9    0.0       0.54009   1
244     242   253   255     9    0.0       0.54009   2
244     242   253   255     9    0.0       1.08018   3
244     242   253   255     9    0.0       0.00000   0
242     244   247   248     9    0.0       0.41857   3
242     244   247   249     9    0.0       0.41857   3
242     244   247   250     9    0.0       0.41857   3
245     244   247   248     9    0.0       0.41857   3
245     244   247   249     9    0.0       0.41857   3
245     244   247   250     9    0.0       0.41857   3
246     244   247   248     9    0.0       0.41857   3
246     244   247   249     9    0.0       0.41857   3
246     244   247   250     9    0.0       0.41857   3
244     247   250   251     9    180.0     1.62027   2
244     247   250   251     9    0.0       0.00000   0
244     247   250   252     9    180.0     1.62027   2
244     247   250   252     9    0.0       0.00000   0
248     247   250   251     9    0.0       0.00000   0
248     247   250   252     9    0.0       0.00000   0
249     247   250   251     9    0.0       0.00000   0
249     247   250   252     9    0.0       0.00000   0
242     253   255   256     9    180.0     6.75112   2
242     253   255   265     9    180.0     6.75112   2
254     253   255   256     9    180.0     6.75112   2
254     253   255   265     9    180.0     6.75112   2
253     255   256   257     9    0.0       0.00000   0
253     255   256   258     9    0.0       0.00000   0
253     255   256   259     9    0.0       1.08018   3
253     255   256   259     9    0.0       5.40089   1
253     255   256   259     9    0.0       5.40089   2
253     255   256   259     9    0.0       0.00000   0
265     255   256   257     9    0.0       0.00000   0
265     255   256   258     9    0.0       0.00000   0
265     255   256   259     9    0.0       0.00000   0
253     255   265   262     9    0.0       5.40089   1
253     255   265   262     9    0.0       5.40089   2
253     255   265   262     9    0.0       1.08018   3
253     255   265   262     9    0.0       0.00000   0
253     255   265   266     9    0.0       0.00000   0
253     255   265   267     9    0.0       0.72912   2
253     255   265   267     9    0.0       1.13419   3
253     255   265   267     9    0.0       0.00000   0
256     255   265   262     9    0.0       0.00000   0
256     255   265   266     9    0.0       0.00000   0
256     255   265   267     9    0.0       0.00000   0
255     256   259   260     9    0.0       0.42007   3
255     256   259   261     9    0.0       0.42007   3
255     256   259   262     9    0.0       0.42007   3
257     256   259   260     9    0.0       0.42007   3
257     256   259   261     9    0.0       0.42007   3
257     256   259   262     9    0.0       0.42007   3
258     256   259   260     9    0.0       0.42007   3
258     256   259   261     9    0.0       0.42007   3
258     256   259   262     9    0.0       0.42007   3
256     259   262   263     9    0.0       0.43207   3
256     259   262   263     9    0.0       0.42007   3
256     259   262   264     9    0.0       0.43207   3
256     259   262   264     9    0.0       0.42007   3
256     259   262   265     9    0.0       0.48608   3
256     259   262   265     9    180.0     0.54009   1
256     259   262   265     9    180.0     0.67511   2
256     259   262   265     9    0.0       0.42007   3
260     259   262   263     9    0.0       0.40507   3
260     259   262   263     9    0.0       0.40507   3
260     259   262   263     9    0.0       0.42007   3
260     259   262   264     9    0.0       0.40507   3
260     259   262   264     9    0.0       0.40507   3
260     259   262   264     9    0.0       0.42007   3
260     259   262   265     9    0.0       0.43207   3
260     259   262   265     9    0.0       0.42007   3
261     259   262   263     9    0.0       0.40507   3
261     259   262   263     9    0.0       0.40507   3
261     259   262   263     9    0.0       0.42007   3
261     259   262   264     9    0.0       0.40507   3
261     259   262   264     9    0.0       0.40507   3
261     259   262   264     9    0.0       0.42007   3
261     259   262   265     9    0.0       0.43207   3
261     259   262   265     9    0.0       0.42007   3
259     262   265   255     9    0.0       0.42007   3
259     262   265   266     9    0.0       0.42007   3
259     262   265   267     9    0.0       0.42007   3
263     262   265   255     9    0.0       0.42007   3
263     262   265   266     9    0.0       0.42007   3
263     262   265   267     9    0.0       0.42007   3
264     262   265   255     9    0.0       0.42007   3
264     262   265   266     9    0.0       0.42007   3
264     262   265   267     9    0.0       0.42007   3
255     265   267   268     9    0.0       0.00000   0
255     265   267   269     9    180.0     1.21520   1
255     265   267   269     9    180.0     4.26671   2
255     265   267   269     9    180.0     1.48525   3
255     265   267   269     9    0.0       0.00000   0
262     265   267   268     9    0.0       0.00000   0
262     265   267   269     9    0.0       0.54009   1
262     265   267   269     9    0.0       0.54009   2
262     265   267   269     9    0.0       1.08018   3
262     265   267   269     9    0.0       0.00000   0
266     265   267   268     9    0.0       2.16036   1
266     265   267   268     9    180.0     0.21604   3
266     265   267   268     9    0.0       0.00000   0
266     265   267   269     9    0.0       0.00000   0
265     267   269   270     9    180.0     6.75112   2
265     267   269   271     9    180.0     6.75112   2
268     267   269   270     9    0.0       5.40089   1
268     267   269   270     9    180.0     6.75112   2
268     267   269   270     9    180.0     6.75112   2
268     267   269   271     9    180.0     6.75112   2
267     269   271   272     9    0.0       0.00000   0
267     269   271   273     9    0.0       1.08018   3
267     269   271   273     9    0.0       5.40089   1
267     269   271   273     9    0.0       5.40089   2
267     269   271   273     9    0.0       0.00000   0
267     269   271   282     9    180.0     0.09182   1
267     269   271   282     9    0.0       0.90465   2
267     269   271   282     9    0.0       1.46905   3
267     269   271   282     9    0.0       0.21604   4
267     269   271   282     9    0.0       0.00000   0
270     269   271   272     9    0.0       0.00000   0
270     269   271   273     9    0.0       0.00000   0
270     269   271   282     9    0.0       0.00000   0
269     271   273   274     9    0.0       0.42007   3
269     271   273   275     9    0.0       0.42007   3
269     271   273   276     9    0.0       0.27004   1
269     271   273   276     9    0.0       0.42007   3
272     271   273   274     9    0.0       0.42007   3
272     271   273   275     9    0.0       0.42007   3
272     271   273   276     9    0.0       0.42007   3
282     271   273   274     9    0.0       0.42007   3
282     271   273   275     9    0.0       0.42007   3
282     271   273   276     9    0.0       0.81013   1
282     271   273   276     9    0.0       0.42007   3
269     271   282   283     9    0.0       0.00000   0
269     271   282   284     9    360.0     0.53199   1
269     271   282   284     9    180.0     3.90215   2
269     271   282   284     9    180.0     1.29352   3
269     271   282   284     9    360.0     0.05158   4
269     271   282   284     9    360.0     0.01080   5
269     271   282   284     9    0.0       0.00000   0
272     271   282   283     9    0.0       2.16036   1
272     271   282   283     9    180.0     0.21604   3
272     271   282   283     9    0.0       0.00000   0
272     271   282   284     9    0.0       0.00000   0
273     271   282   283     9    0.0       0.00000   0
273     271   282   284     9    0.0       0.54009   1
273     271   282   284     9    0.0       0.54009   2
273     271   282   284     9    0.0       1.08018   3
273     271   282   284     9    0.0       0.00000   0
271     273   276   277     9    0.0       0.41857   3
271     273   276   278     9    0.0       0.41857   3
271     273   276   279     9    0.0       0.41857   3
274     273   276   277     9    0.0       0.41857   3
274     273   276   278     9    0.0       0.41857   3
274     273   276   279     9    0.0       0.41857   3
275     273   276   277     9    0.0       0.41857   3
275     273   276   278     9    0.0       0.41857   3
275     273   276   279     9    0.0       0.41857   3
273     276   279   280     9    180.0     1.62027   2
273     276   279   280     9    0.0       0.00000   0
273     276   279   281     9    180.0     1.62027   2
273     276   279   281     9    0.0       0.00000   0
277     276   279   280     9    0.0       0.00000   0
277     276   279   281     9    0.0       0.00000   0
278     276   279   280     9    0.0       0.00000   0
278     276   279   281     9    0.0       0.00000   0
271     282   284   285     9    180.0     6.75112   2
271     282   284   286     9    180.0     6.75112   2
283     282   284   285     9    0.0       5.40089   1
283     282   284   285     9    180.0     6.75112   2
283     282   284   285     9    180.0     6.75112   2
283     282   284   286     9    180.0     6.75112   2
282     284   286   287     9    0.0       0.00000   0
282     284   286   288     9    0.0       1.08018   3
282     284   286   288     9    0.0       5.40089   1
282     284   286   288     9    0.0       5.40089   2
282     284   286   288     9    0.0       0.00000   0
282     284   286   292     9    180.0     0.09182   1
282     284   286   292     9    0.0       0.90465   2
282     284   286   292     9    0.0       1.46905   3
282     284   286   292     9    0.0       0.21604   4
282     284   286   292     9    0.0       0.00000   0
285     284   286   287     9    0.0       0.00000   0
285     284   286   288     9    0.0       0.00000   0
285     284   286   292     9    0.0       0.00000   0
284     286   288   289     9    0.0       0.42007   3
284     286   288   290     9    0.0       0.42007   3
284     286   288   291     9    0.0       0.42007   3
287     286   288   289     9    0.0       0.42007   3
287     286   288   290     9    0.0       0.42007   3
287     286   288   291     9    0.0       0.42007   3
292     286   288   289     9    0.0       0.42007   3
292     286   288   290     9    0.0       0.42007   3
292     286   288   291     9    0.0       0.42007   3
284     286   292   293     9    0.0       0.00000   0
284     286   292   294     9    0.0       0.00000   0
287     286   292   293     9    0.0       0.00000   0
287     286   292   294     9    0.0       0.00000   0
288     286   292   293     9    0.0       0.00000   0
288     286   292   294     9    0.0       0.00000   0
5        15    13    14     4    180.0     28.35469  2
7        11    10    12     4    180.0     28.35469  2
13       17    15    16     4    180.0     2.97049   2
13       15    17    27     4    90.0      1.08018   2
15       17    27    29     4    90.0      0.15393   3
15       17    27    29     4    90.0      0.06751   4
15       17    27    29     4    90.0      -0.02969  5
15       17    27    29     4    160.888   1.75529   1
15       17    27    29     4    90.0      -0.68860  1
15       17    27    29     4    90.0      0.20253   2
17       29    27    28     4    180.0     28.35469  2
19       24    22    23     4    180.0     28.35469  2
22       25    24    26     4    180.0     2.70045   2
27       31    29    30     4    180.0     2.97049   2
27       29    31    42     4    90.0      1.08018   2
29       31    42    44     4    160.888   1.75529   1
29       31    42    44     4    90.0      -0.68860  1
29       31    42    44     4    90.0      0.20253   2
29       31    42    44     4    90.0      0.15393   3
29       31    42    44     4    90.0      0.06751   4
29       31    42    44     4    90.0      -0.02969  5
31       44    42    43     4    180.0     28.35469  2
36       40    39    41     4    180.0     28.35469  2
42       46    44    45     4    180.0     2.97049   2
42       44    46    52     4    90.0      1.08018   2
44       46    52    54     4    90.0      0.20253   2
44       46    52    54     4    90.0      0.06751   4
44       46    52    54     4    90.0      -0.02969  5
44       46    52    54     4    90.0      0.15393   3
44       46    52    54     4    160.888   1.75529   1
44       46    52    54     4    90.0      -0.68860  1
46       54    52    53     4    180.0     28.35469  2
52       56    54    55     4    180.0     2.97049   2
52       54    56    73     4    90.0      1.08018   2
54       56    73    75     4    90.0      -0.68860  1
54       56    73    75     4    90.0      0.20253   2
54       56    73    75     4    90.0      0.15393   3
54       56    73    75     4    90.0      0.06751   4
54       56    73    75     4    90.0      -0.02969  5
54       56    73    75     4    160.888   1.75529   1
56       75    73    74     4    180.0     28.35469  2
58       61    71    62     4    180.0     2.97049   2
61       64    62    63     4    180.0     2.97049   2
61       69    71    72     4    180.0     2.97049   2
62       66    64    65     4    180.0     2.97049   2
64       69    66    67     4    180.0     2.97049   2
66       71    69    70     4    180.0     2.97049   2
73       77    75    76     4    180.0     2.97049   2
73       75    77    88     4    90.0      1.08018   2
75       77    88    90     4    160.888   1.75529   1
75       77    88    90     4    90.0      -0.68860  1
75       77    88    90     4    90.0      0.20253   2
75       77    88    90     4    90.0      0.06751   4
75       77    88    90     4    90.0      -0.02969  5
75       77    88    90     4    90.0      0.15393   3
77       90    88    89     4    180.0     28.35469  2
82       86    85    87     4    180.0     28.35469  2
88       92    90    91     4    180.0     2.97049   2
88       90    92   105     4    90.0      1.08018   2
90       92   105   107     4    90.0      -0.68860  1
90       92   105   107     4    90.0      0.20253   2
90       92   105   107     4    90.0      0.15393   3
90       92   105   107     4    90.0      0.06751   4
90       92   105   107     4    90.0      -0.02969  5
90       92   105   107     4    160.888   1.75529   1
92      107   105   106     4    180.0     28.35469  2
105     108   107   117     4    180.0     2.70045   2
117     121   119   120     4    180.0     28.35469  2
119     123   121   122     4    180.0     2.97049   2
119     121   123   130     4    90.0      1.08018   2
121     123   130   132     4    90.0      0.06751   4
121     123   130   132     4    90.0      -0.02969  5
121     123   130   132     4    90.0      0.15393   3
121     123   130   132     4    160.888   1.75529   1
121     123   130   132     4    90.0      -0.68860  1
121     123   130   132     4    90.0      0.20253   2
123     132   130   131     4    180.0     28.35469  2
130     134   132   133     4    180.0     2.97049   2
130     132   134   145     4    90.0      1.08018   2
132     134   145   147     4    90.0      -0.68860  1
132     134   145   147     4    90.0      0.20253   2
132     134   145   147     4    90.0      0.15393   3
132     134   145   147     4    90.0      0.06751   4
132     134   145   147     4    90.0      -0.02969  5
132     134   145   147     4    160.888   1.75529   1
134     147   145   146     4    180.0     28.35469  2
139     143   142   144     4    180.0     28.35469  2
145     149   147   148     4    180.0     2.97049   2
145     147   149   160     4    90.0      1.08018   2
147     149   160   162     4    90.0      -0.68860  1
147     149   160   162     4    90.0      0.20253   2
147     149   160   162     4    90.0      0.15393   3
147     149   160   162     4    90.0      0.06751   4
147     149   160   162     4    90.0      -0.02969  5
147     149   160   162     4    160.888   1.75529   1
149     162   160   161     4    180.0     28.35469  2
154     158   157   159     4    180.0     28.35469  2
160     164   162   163     4    180.0     2.97049   2
164     169   167   168     4    180.0     28.35469  2
167     171   169   170     4    180.0     2.97049   2
167     169   171   188     4    90.0      1.08018   2
169     171   188   190     4    160.888   1.75529   1
169     171   188   190     4    90.0      -0.68860  1
169     171   188   190     4    90.0      0.20253   2
169     171   188   190     4    90.0      0.15393   3
169     171   188   190     4    90.0      0.06751   4
169     171   188   190     4    90.0      -0.02969  5
171     190   188   189     4    180.0     28.35469  2
173     176   186   177     4    180.0     2.97049   2
176     179   177   178     4    180.0     2.97049   2
176     184   186   187     4    180.0     2.97049   2
177     181   179   180     4    180.0     2.97049   2
179     184   181   182     4    180.0     2.97049   2
181     186   184   185     4    180.0     2.97049   2
188     192   190   191     4    180.0     2.97049   2
188     190   192   205     4    90.0      1.08018   2
190     192   205   207     4    90.0      -0.68860  1
190     192   205   207     4    160.888   1.75529   1
190     192   205   207     4    90.0      0.20253   2
190     192   205   207     4    90.0      0.15393   3
190     192   205   207     4    90.0      0.06751   4
190     192   205   207     4    90.0      -0.02969  5
192     207   205   206     4    180.0     28.35469  2
197     202   200   201     4    180.0     28.35469  2
200     203   202   204     4    180.0     2.70045   2
205     209   207   208     4    180.0     2.97049   2
205     207   209   217     4    90.0      1.08018   2
207     209   217   219     4    160.888   1.75529   1
207     209   217   219     4    90.0      0.15393   3
207     209   217   219     4    90.0      0.06751   4
207     209   217   219     4    90.0      -0.02969  5
207     209   217   219     4    90.0      0.20253   2
207     209   217   219     4    90.0      -0.68860  1
209     219   217   218     4    180.0     28.35469  2
211     215   214   216     4    180.0     28.35469  2
217     221   219   220     4    180.0     2.97049   2
217     219   221   238     4    90.0      1.08018   2
219     221   238   240     4    90.0      0.20253   2
219     221   238   240     4    160.888   1.75529   1
219     221   238   240     4    90.0      -0.68860  1
219     221   238   240     4    90.0      0.15393   3
219     221   238   240     4    90.0      0.06751   4
219     221   238   240     4    90.0      -0.02969  5
221     240   238   239     4    180.0     28.35469  2
223     226   236   227     4    180.0     2.97049   2
226     229   227   228     4    180.0     2.97049   2
226     234   236   237     4    180.0     2.97049   2
227     231   229   230     4    180.0     2.97049   2
229     234   231   232     4    180.0     2.97049   2
231     236   234   235     4    180.0     2.97049   2
238     242   240   241     4    180.0     2.97049   2
238     240   242   253     4    90.0      1.08018   2
240     242   253   255     4    90.0      0.20253   2
240     242   253   255     4    90.0      0.15393   3
240     242   253   255     4    90.0      0.06751   4
240     242   253   255     4    90.0      -0.02969  5
240     242   253   255     4    160.888   1.75529   1
240     242   253   255     4    90.0      -0.68860  1
242     255   253   254     4    180.0     28.35469  2
247     251   250   252     4    180.0     28.35469  2
253     256   255   265     4    180.0     2.70045   2
265     269   267   268     4    180.0     28.35469  2
267     271   269   270     4    180.0     2.97049   2
267     269   271   282     4    90.0      1.08018   2
269     271   282   284     4    160.888   1.75529   1
269     271   282   284     4    90.0      -0.68860  1
269     271   282   284     4    90.0      0.20253   2
269     271   282   284     4    90.0      0.15393   3
269     271   282   284     4    90.0      0.06751   4
269     271   282   284     4    90.0      -0.02969  5
271     284   282   283     4    180.0     28.35469  2
276     280   279   281     4    180.0     28.35469  2
282     286   284   285     4    180.0     2.97049   2
282     284   286   292     4    90.0      1.08018   2
286     293   292   294     4    180.0     28.35469  2

[ moleculetype ]
;name            nrexcl
 L47              3

[ atoms ]
     1        sc3      1    L47      C      1    -0.1375      12.01
     2        shc      1    L47      H      2     0.0659       1.01
     3        shc      1    L47     H1      3     0.0659       1.01
     4        shc      1    L47     H2      4     0.0659       1.01
     5         sc      1    L47     C1      5     0.5472      12.01
     6         so      1    L47      O      6    -0.4492      16.00
     7         sn      1    L47      N      7    -0.3069      14.01
     8        sc3      1    L47     C2      8     0.0659      12.01
     9        sh1      1    L47     H3      9     0.0540       1.01
    10        sh1      1    L47     H4     10     0.0540       1.01
    11        sc3      1    L47     C3     11    -0.0322      12.01
    12        shc      1    L47     H5     12     0.0632       1.01
    13        shc      1    L47     H6     13     0.0632       1.01
    14        sca      1    L47     C4     14    -0.1344      12.01
    15        sca      1    L47     C5     15     0.1395      12.01
    16        sca      1    L47     C6     16    -0.1486      12.01
    17        sha      1    L47     H7     17     0.1534       1.01
    18        sca      1    L47     C7     18     0.0185      12.01
    19        sha      1    L47     H8     19     0.1149       1.01
    20        sca      1    L47     C8     20    -0.4005      12.01
    21        sca      1    L47     C9     21     0.0305      12.01
    22        sha      1    L47     H9     22     0.1293       1.01
    23        ssy      1    L47      S     23     1.2237      32.06
    24         so      1    L47     O1     24    -0.5365      16.00
    25         so      1    L47     O2     25    -0.5365      16.00
    26        sn3      1    L47     N1     26    -0.6391      14.01
    27        sc3      1    L47    C10     27     0.1573      12.01
    28        sh1      1    L47    H10     28     0.0717       1.01
    29        sh1      1    L47    H11     29     0.0717       1.01
    30        sc3      1    L47    C11     30    -0.1128      12.01
    31        shc      1    L47    H12     31     0.0757       1.01
    32        shc      1    L47    H13     32     0.0757       1.01
    33        sc3      1    L47    C12     33     0.0914      12.01
    34        shx      1    L47    H14     34     0.0801       1.01
    35        shx      1    L47    H15     35     0.0801       1.01
    36        sn4      1    L47     N2     36    -0.6122      14.01
    37        shn      1    L47    H16     37     0.3786       1.01
    38        shn      1    L47    H17     38     0.3786       1.01
    39        sc3      1    L47    C13     39     0.0569      12.01
    40        shx      1    L47    H18     40     0.0829       1.01
    41        shx      1    L47    H19     41     0.0829       1.01
    42        sc3      1    L47    C14     42     0.1694      12.01
    43        sh1      1    L47    H20     43     0.0709       1.01
    44        sh1      1    L47    H21     44     0.0709       1.01

[ bonds ]
     1      2   1    1.0969e-01    2.7665e+05 ;      C - H     
     1      3   1    1.0969e-01    2.7665e+05 ;      C - H1    
     1      4   1    1.0969e-01    2.7665e+05 ;      C - H2    
     1      5   1    1.5241e-01    2.6192e+05 ;      C - C1    
     5      6   1    1.2183e-01    5.3363e+05 ;     C1 - O     
     5      7   1    1.3789e-01    3.5782e+05 ;     C1 - N     
     7      8   1    1.4619e-01    2.7506e+05 ;      N - C2    
     7     15   1    1.4121e-01    3.2150e+05 ;      N - C5    
     8      9   1    1.0969e-01    2.7665e+05 ;     C2 - H3    
     8     10   1    1.0969e-01    2.7665e+05 ;     C2 - H4    
     8     11   1    1.5375e-01    2.5179e+05 ;     C2 - C3    
    11     12   1    1.0969e-01    2.7665e+05 ;     C3 - H5    
    11     13   1    1.0969e-01    2.7665e+05 ;     C3 - H6    
    11     14   1    1.5156e-01    2.6861e+05 ;     C3 - C4    
    14     15   1    1.3984e-01    3.8585e+05 ;     C4 - C5    
    14     21   1    1.3984e-01    3.8585e+05 ;     C4 - C9    
    15     16   1    1.3984e-01    3.8585e+05 ;     C5 - C6    
    16     17   1    1.0860e-01    2.8937e+05 ;     C6 - H7    
    16     18   1    1.3984e-01    3.8585e+05 ;     C6 - C7    
    18     19   1    1.0860e-01    2.8937e+05 ;     C7 - H8    
    18     20   1    1.3984e-01    3.8585e+05 ;     C7 - C8    
    20     21   1    1.3984e-01    3.8585e+05 ;     C8 - C9    
    20     23   1    1.7909e-01    2.0368e+05 ;     C8 - S     
    21     22   1    1.0860e-01    2.8937e+05 ;     C9 - H9    
    23     24   1    1.4660e-01    4.1254e+05 ;      S - O1    
    23     25   1    1.4660e-01    4.1254e+05 ;      S - O2    
    23     26   1    1.6962e-01    2.4886e+05 ;      S - N1    
    26     27   1    1.4647e-01    2.7271e+05 ;     N1 - C10   
    26     42   1    1.4647e-01    2.7271e+05 ;     N1 - C14   
    27     28   1    1.0969e-01    2.7665e+05 ;    C10 - H10   
    27     29   1    1.0969e-01    2.7665e+05 ;    C10 - H11   
    27     30   1    1.5375e-01    2.5179e+05 ;    C10 - C11   
    30     31   1    1.0969e-01    2.7665e+05 ;    C11 - H12   
    30     32   1    1.0969e-01    2.7665e+05 ;    C11 - H13   
    30     33   1    1.5375e-01    2.5179e+05 ;    C11 - C12   
    33     34   1    1.0910e-01    2.8342e+05 ;    C12 - H14   
    33     35   1    1.0910e-01    2.8342e+05 ;    C12 - H15   
    33     36   1    1.5110e-01    2.3707e+05 ;    C12 - N2    
    36     37   1    1.0304e-01    3.1229e+05 ;     N2 - H16   
    36     38   1    1.0304e-01    3.1229e+05 ;     N2 - H17   
    36     39   1    1.5110e-01    2.3707e+05 ;     N2 - C13   
    39     40   1    1.0910e-01    2.8342e+05 ;    C13 - H18   
    39     41   1    1.0910e-01    2.8342e+05 ;    C13 - H19   
    39     42   1    1.5375e-01    2.5179e+05 ;    C13 - C14   
    42     43   1    1.0969e-01    2.7665e+05 ;    C14 - H20   
    42     44   1    1.0969e-01    2.7665e+05 ;    C14 - H21   


[ pairs ]
     1      8      1 ;      C - C2    
     1     15      1 ;      C - C5    
     2      6      1 ;      H - O     
     2      7      1 ;      H - N     
     3      6      1 ;     H1 - O     
     3      7      1 ;     H1 - N     
     4      6      1 ;     H2 - O     
     4      7      1 ;     H2 - N     
     5      9      1 ;     C1 - H3    
     5     10      1 ;     C1 - H4    
     5     11      1 ;     C1 - C3    
     5     14      1 ;     C1 - C4    
     5     16      1 ;     C1 - C6    
     6      8      1 ;      O - C2    
     6     15      1 ;      O - C5    
     7     12      1 ;      N - H5    
     7     13      1 ;      N - H6    
     7     17      1 ;      N - H7    
     7     18      1 ;      N - C7    
     7     21      1 ;      N - C9    
     8     16      1 ;     C2 - C6    
     8     21      1 ;     C2 - C9    
     9     12      1 ;     H3 - H5    
     9     13      1 ;     H3 - H6    
     9     14      1 ;     H3 - C4    
     9     15      1 ;     H3 - C5    
    10     12      1 ;     H4 - H5    
    10     13      1 ;     H4 - H6    
    10     14      1 ;     H4 - C4    
    10     15      1 ;     H4 - C5    
    11     16      1 ;     C3 - C6    
    11     20      1 ;     C3 - C8    
    11     22      1 ;     C3 - H9    
    12     15      1 ;     H5 - C5    
    12     21      1 ;     H5 - C9    
    13     15      1 ;     H6 - C5    
    13     21      1 ;     H6 - C9    
    14     17      1 ;     C4 - H7    
    14     18      1 ;     C4 - C7    
    14     23      1 ;     C4 - S     
    15     19      1 ;     C5 - H8    
    15     20      1 ;     C5 - C8    
    15     22      1 ;     C5 - H9    
    16     21      1 ;     C6 - C9    
    16     23      1 ;     C6 - S     
    17     19      1 ;     H7 - H8    
    17     20      1 ;     H7 - C8    
    18     22      1 ;     C7 - H9    
    18     24      1 ;     C7 - O1    
    18     25      1 ;     C7 - O2    
    18     26      1 ;     C7 - N1    
    19     21      1 ;     H8 - C9    
    19     23      1 ;     H8 - S     
    20     27      1 ;     C8 - C10   
    20     42      1 ;     C8 - C14   
    21     24      1 ;     C9 - O1    
    21     25      1 ;     C9 - O2    
    21     26      1 ;     C9 - N1    
    22     23      1 ;     H9 - S     
    23     28      1 ;      S - H10   
    23     29      1 ;      S - H11   
    23     30      1 ;      S - C11   
    23     39      1 ;      S - C13   
    23     43      1 ;      S - H20   
    23     44      1 ;      S - H21   
    24     27      1 ;     O1 - C10   
    24     42      1 ;     O1 - C14   
    25     27      1 ;     O2 - C10   
    25     42      1 ;     O2 - C14   
    26     31      1 ;     N1 - H12   
    26     32      1 ;     N1 - H13   
    26     33      1 ;     N1 - C12   
    26     36      1 ;     N1 - N2    
    26     40      1 ;     N1 - H18   
    26     41      1 ;     N1 - H19   
    27     34      1 ;    C10 - H14   
    27     35      1 ;    C10 - H15   
    27     36      1 ;    C10 - N2    
    27     39      1 ;    C10 - C13   
    27     43      1 ;    C10 - H20   
    27     44      1 ;    C10 - H21   
    28     31      1 ;    H10 - H12   
    28     32      1 ;    H10 - H13   
    28     33      1 ;    H10 - C12   
    28     42      1 ;    H10 - C14   
    29     31      1 ;    H11 - H12   
    29     32      1 ;    H11 - H13   
    29     33      1 ;    H11 - C12   
    29     42      1 ;    H11 - C14   
    30     37      1 ;    C11 - H16   
    30     38      1 ;    C11 - H17   
    30     39      1 ;    C11 - C13   
    30     42      1 ;    C11 - C14   
    31     34      1 ;    H12 - H14   
    31     35      1 ;    H12 - H15   
    31     36      1 ;    H12 - N2    
    32     34      1 ;    H13 - H14   
    32     35      1 ;    H13 - H15   
    32     36      1 ;    H13 - N2    
    33     40      1 ;    C12 - H18   
    33     41      1 ;    C12 - H19   
    33     42      1 ;    C12 - C14   
    34     37      1 ;    H14 - H16   
    34     38      1 ;    H14 - H17   
    34     39      1 ;    H14 - C13   
    35     37      1 ;    H15 - H16   
    35     38      1 ;    H15 - H17   
    35     39      1 ;    H15 - C13   
    36     43      1 ;     N2 - H20   
    36     44      1 ;     N2 - H21   
    37     40      1 ;    H16 - H18   
    37     41      1 ;    H16 - H19   
    37     42      1 ;    H16 - C14   
    38     40      1 ;    H17 - H18   
    38     41      1 ;    H17 - H19   
    38     42      1 ;    H17 - C14   
    40     43      1 ;    H18 - H20   
    40     44      1 ;    H18 - H21   
    41     43      1 ;    H19 - H20   
    41     44      1 ;    H19 - H21   


[ angles ]
     1      5      6      1    1.2320e+02    5.6400e+02 ;      C - C1     - O     
     1      5      7      1    1.1518e+02    5.5898e+02 ;      C - C1     - N     
     2      1      3      1    1.0758e+02    3.2970e+02 ;      H - C      - H1    
     2      1      4      1    1.0758e+02    3.2970e+02 ;      H - C      - H2    
     2      1      5      1    1.0877e+02    3.9246e+02 ;      H - C      - C1    
     3      1      4      1    1.0758e+02    3.2970e+02 ;     H1 - C      - H2    
     3      1      5      1    1.0877e+02    3.9246e+02 ;     H1 - C      - C1    
     4      1      5      1    1.0877e+02    3.9246e+02 ;     H2 - C      - C1    
     5      7      8      1    1.2069e+02    5.3053e+02 ;     C1 - N      - C2    
     5      7     15      1    1.2371e+02    5.3388e+02 ;     C1 - N      - C5    
     6      5      7      1    1.2305e+02    6.2091e+02 ;      O - C1     - N     
     7      8      9      1    1.0888e+02    4.1673e+02 ;      N - C2     - H3    
     7      8     10      1    1.0888e+02    4.1673e+02 ;      N - C2     - H4    
     7      8     11      1    1.1161e+02    5.5145e+02 ;      N - C2     - C3    
     7     15     14      1    1.2019e+02    5.6819e+02 ;      N - C5     - C4    
     7     15     16      1    1.2019e+02    5.6819e+02 ;      N - C5     - C6    
     8      7     15      1    1.1983e+02    5.2718e+02 ;     C2 - N      - C5    
     8     11     12      1    1.0980e+02    3.8744e+02 ;     C2 - C3     - H5    
     8     11     13      1    1.0980e+02    3.8744e+02 ;     C2 - C3     - H6    
     8     11     14      1    1.1207e+02    5.2802e+02 ;     C2 - C3     - C4    
     9      8     10      1    1.0846e+02    3.2803e+02 ;     H3 - C2     - H4    
     9      8     11      1    1.0956e+02    3.8828e+02 ;     H3 - C2     - C3    
    10      8     11      1    1.0956e+02    3.8828e+02 ;     H4 - C2     - C3    
    11     14     15      1    1.2077e+02    5.3137e+02 ;     C3 - C4     - C5    
    11     14     21      1    1.2077e+02    5.3137e+02 ;     C3 - C4     - C9    
    12     11     13      1    1.0758e+02    3.2970e+02 ;     H5 - C3     - H6    
    12     11     14      1    1.1047e+02    3.9162e+02 ;     H5 - C3     - C4    
    13     11     14      1    1.1047e+02    3.9162e+02 ;     H6 - C3     - C4    
    14     15     16      1    1.2002e+02    5.5731e+02 ;     C4 - C5     - C6    
    14     21     20      1    1.2002e+02    5.5731e+02 ;     C4 - C9     - C8    
    14     21     22      1    1.1988e+02    4.0334e+02 ;     C4 - C9     - H9    
    15     14     21      1    1.2002e+02    5.5731e+02 ;     C5 - C4     - C9    
    15     16     17      1    1.1988e+02    4.0334e+02 ;     C5 - C6     - H7    
    15     16     18      1    1.2002e+02    5.5731e+02 ;     C5 - C6     - C7    
    16     18     19      1    1.1988e+02    4.0334e+02 ;     C6 - C7     - H8    
    16     18     20      1    1.2002e+02    5.5731e+02 ;     C6 - C7     - C8    
    17     16     18      1    1.1988e+02    4.0334e+02 ;     H7 - C6     - C7    
    18     20     21      1    1.2002e+02    5.5731e+02 ;     C7 - C8     - C9    
    18     20     23      1    1.1942e+02    5.1463e+02 ;     C7 - C8     - S     
    19     18     20      1    1.1988e+02    4.0334e+02 ;     H8 - C7     - C8    
    20     21     22      1    1.1988e+02    4.0334e+02 ;     C8 - C9     - H9    
    20     23     24      1    1.0835e+02    5.5061e+02 ;     C8 - S      - O1    
    20     23     25      1    1.0835e+02    5.5061e+02 ;     C8 - S      - O2    
    20     23     26      1    1.0244e+02    5.3555e+02 ;     C8 - S      - N1    
    21     20     23      1    1.1942e+02    5.1463e+02 ;     C9 - C8     - S     
    23     26     27      1    1.1525e+02    5.2300e+02 ;      S - N1     - C10   
    23     26     42      1    1.1525e+02    5.2300e+02 ;      S - N1     - C14   
    24     23     25      1    1.2141e+02    6.0668e+02 ;     O1 - S      - O2    
    24     23     26      1    1.0713e+02    5.8911e+02 ;     O1 - S      - N1    
    25     23     26      1    1.0713e+02    5.8911e+02 ;     O2 - S      - N1    
    26     27     28      1    1.0988e+02    4.1422e+02 ;     N1 - C10    - H10   
    26     27     29      1    1.0988e+02    4.1422e+02 ;     N1 - C10    - H11   
    26     27     30      1    1.1104e+02    5.5229e+02 ;     N1 - C10    - C11   
    26     42     39      1    1.1104e+02    5.5229e+02 ;     N1 - C14    - C13   
    26     42     43      1    1.0988e+02    4.1422e+02 ;     N1 - C14    - H20   
    26     42     44      1    1.0988e+02    4.1422e+02 ;     N1 - C14    - H21   
    27     26     42      1    1.1235e+02    5.3388e+02 ;    C10 - N1     - C14   
    27     30     31      1    1.0980e+02    3.8744e+02 ;    C10 - C11    - H12   
    27     30     32      1    1.0980e+02    3.8744e+02 ;    C10 - C11    - H13   
    27     30     33      1    1.1151e+02    5.2635e+02 ;    C10 - C11    - C12   
    28     27     29      1    1.0846e+02    3.2803e+02 ;    H10 - C10    - H11   
    28     27     30      1    1.0956e+02    3.8828e+02 ;    H10 - C10    - C11   
    29     27     30      1    1.0956e+02    3.8828e+02 ;    H11 - C10    - C11   
    30     33     34      1    1.1056e+02    3.8660e+02 ;    C11 - C12    - H14   
    30     33     35      1    1.1056e+02    3.8660e+02 ;    C11 - C12    - H15   
    30     33     36      1    1.1421e+02    5.3723e+02 ;    C11 - C12    - N2    
    31     30     32      1    1.0758e+02    3.2970e+02 ;    H12 - C11    - H13   
    31     30     33      1    1.0980e+02    3.8744e+02 ;    H12 - C11    - C12   
    32     30     33      1    1.0980e+02    3.8744e+02 ;    H13 - C11    - C12   
    33     36     37      1    1.1011e+02    3.8409e+02 ;    C12 - N2     - H16   
    33     36     38      1    1.1011e+02    3.8409e+02 ;    C12 - N2     - H17   
    33     36     39      1    1.0966e+02    5.2384e+02 ;    C12 - N2     - C13   
    34     33     35      1    1.0975e+02    3.2803e+02 ;    H14 - C12    - H15   
    34     33     36      1    1.0801e+02    4.0668e+02 ;    H14 - C12    - N2    
    35     33     36      1    1.0801e+02    4.0668e+02 ;    H15 - C12    - N2    
    36     39     40      1    1.0801e+02    4.0668e+02 ;     N2 - C13    - H18   
    36     39     41      1    1.0801e+02    4.0668e+02 ;     N2 - C13    - H19   
    36     39     42      1    1.1421e+02    5.3723e+02 ;     N2 - C13    - C14   
    37     36     38      1    1.0830e+02    3.3974e+02 ;    H16 - N2     - H17   
    37     36     39      1    1.1011e+02    3.8409e+02 ;    H16 - N2     - C13   
    38     36     39      1    1.1011e+02    3.8409e+02 ;    H17 - N2     - C13   
    39     42     43      1    1.0956e+02    3.8828e+02 ;    C13 - C14    - H20   
    39     42     44      1    1.0956e+02    3.8828e+02 ;    C13 - C14    - H21   
    40     39     41      1    1.0975e+02    3.2803e+02 ;    H18 - C13    - H19   
    40     39     42      1    1.1056e+02    3.8660e+02 ;    H18 - C13    - C14   
    41     39     42      1    1.1056e+02    3.8660e+02 ;    H19 - C13    - C14   
    43     42     44      1    1.0846e+02    3.2803e+02 ;    H20 - C14    - H21   


[ dihedrals ]
1         5     7     8     9    0.00      0.00000   0
1         5     7     8     9    180.00    4.05067   1
1         5     7    15     9    180.00    6.75112   2
2         1     5     6     9    0.00      0.00000   0
2         1     5     6     9    0.00      2.16036   1
2         1     5     6     9    180.00    0.21604   3
2         1     5     7     9    180.00    0.00000   2
3         1     5     6     9    0.00      0.00000   0
3         1     5     6     9    0.00      2.16036   1
3         1     5     6     9    180.00    0.21604   3
3         1     5     7     9    180.00    0.00000   2
4         1     5     6     9    0.00      0.00000   0
4         1     5     6     9    0.00      2.16036   1
4         1     5     6     9    180.00    0.21604   3
4         1     5     7     9    180.00    0.00000   2
5         7     8     9     9    0.00      0.00000   0
5         7     8    10     9    0.00      0.00000   0
5         7     8    11     9    0.00      0.00000   0
5         7     8    11     9    0.00      1.43124   1
5         7     8    11     9    180.00    0.40507   3
5         7     8    11     9    180.00    1.35022   4
5         7    15    14     9    180.00    1.21520   2
5         7    15    16     9    180.00    1.21520   2
6         5     7     8     9    180.00    6.75112   2
6         5     7    15     9    180.00    6.75112   2
7         8    11    12     9    0.00      0.42007   3
7         8    11    13     9    0.00      0.42007   3
7         8    11    14     9    0.00      0.42007   3
7        15    14    11     9    180.00    9.78912   2
7        15    14    21     9    180.00    9.78912   2
7        15    16    17     9    180.00    9.78912   2
7        15    16    18     9    180.00    9.78912   2
8         7    15    14     9    180.00    1.21520   2
8         7    15    16     9    180.00    1.21520   2
8        11    14    15     9    0.00      0.00000   0
8        11    14    21     9    0.00      0.00000   0
9         8     7    15     9    0.00      0.00000   0
9         8    11    12     9    0.00      0.42007   3
9         8    11    13     9    0.00      0.42007   3
9         8    11    14     9    0.00      0.42007   3
10        8     7    15     9    0.00      0.00000   0
10        8    11    12     9    0.00      0.42007   3
10        8    11    13     9    0.00      0.42007   3
10        8    11    14     9    0.00      0.42007   3
11        8     7    15     9    0.00      0.00000   0
11       14    15    16     9    180.00    9.78912   2
11       14    21    20     9    180.00    9.78912   2
11       14    21    22     9    180.00    9.78912   2
12       11    14    15     9    0.00      0.00000   0
12       11    14    21     9    0.00      0.00000   0
13       11    14    15     9    0.00      0.00000   0
13       11    14    21     9    0.00      0.00000   0
14       15    16    17     9    180.00    9.78912   2
14       15    16    18     9    180.00    9.78912   2
14       21    20    18     9    180.00    9.78912   2
14       21    20    23     9    180.00    9.78912   2
15       14    21    20     9    180.00    9.78912   2
15       14    21    22     9    180.00    9.78912   2
15       16    18    19     9    180.00    9.78912   2
15       16    18    20     9    180.00    9.78912   2
16       15    14    21     9    180.00    9.78912   2
16       18    20    21     9    180.00    9.78912   2
16       18    20    23     9    180.00    9.78912   2
17       16    18    19     9    180.00    9.78912   2
17       16    18    20     9    180.00    9.78912   2
18       20    21    22     9    180.00    9.78912   2
18       20    23    24     9    180.00    3.51058   2
18       20    23    25     9    180.00    3.51058   2
18       20    23    26     9    180.00    3.51058   2
19       18    20    21     9    180.00    9.78912   2
19       18    20    23     9    180.00    9.78912   2
20       23    26    27     9    0.00      8.46140   2
20       23    26    42     9    0.00      8.46140   2
21       20    23    24     9    180.00    3.51058   2
21       20    23    25     9    180.00    3.51058   2
21       20    23    26     9    180.00    3.51058   2
22       21    20    23     9    180.00    9.78912   2
23       26    27    28     9    0.00      0.81013   3
23       26    27    29     9    0.00      0.81013   3
23       26    27    30     9    0.00      0.81013   3
23       26    42    39     9    0.00      0.81013   3
23       26    42    43     9    0.00      0.81013   3
23       26    42    44     9    0.00      0.81013   3
24       23    26    27     9    0.00      8.46140   2
24       23    26    42     9    0.00      8.46140   2
25       23    26    27     9    0.00      8.46140   2
25       23    26    42     9    0.00      8.46140   2
26       27    30    31     9    0.00      0.42007   3
26       27    30    32     9    0.00      0.42007   3
26       27    30    33     9    0.00      0.42007   3
26       42    39    36     9    0.00      0.42007   3
26       42    39    40     9    0.00      0.42007   3
26       42    39    41     9    0.00      0.42007   3
27       26    42    39     9    0.00      0.81013   3
27       26    42    39     9    180.00    1.29621   2
27       26    42    43     9    0.00      0.81013   3
27       26    42    44     9    0.00      0.81013   3
27       30    33    34     9    0.00      0.42007   3
27       30    33    35     9    0.00      0.42007   3
27       30    33    36     9    0.00      0.42007   3
28       27    26    42     9    0.00      0.81013   3
28       27    30    31     9    0.00      0.42007   3
28       27    30    32     9    0.00      0.42007   3
28       27    30    33     9    0.00      0.42007   3
29       27    26    42     9    0.00      0.81013   3
29       27    30    31     9    0.00      0.42007   3
29       27    30    32     9    0.00      0.42007   3
29       27    30    33     9    0.00      0.42007   3
30       27    26    42     9    0.00      0.81013   3
30       27    26    42     9    180.00    1.29621   2
30       33    36    37     9    0.00      0.42007   3
30       33    36    38     9    0.00      0.42007   3
30       33    36    39     9    0.00      0.42007   3
31       30    33    34     9    0.00      0.42007   3
31       30    33    35     9    0.00      0.42007   3
31       30    33    36     9    0.00      0.42007   3
32       30    33    34     9    0.00      0.42007   3
32       30    33    35     9    0.00      0.42007   3
32       30    33    36     9    0.00      0.42007   3
33       36    39    40     9    0.00      0.42007   3
33       36    39    41     9    0.00      0.42007   3
33       36    39    42     9    0.00      0.42007   3
34       33    36    37     9    0.00      0.42007   3
34       33    36    38     9    0.00      0.42007   3
34       33    36    39     9    0.00      0.42007   3
35       33    36    37     9    0.00      0.42007   3
35       33    36    38     9    0.00      0.42007   3
35       33    36    39     9    0.00      0.42007   3
36       39    42    43     9    0.00      0.42007   3
36       39    42    44     9    0.00      0.42007   3
37       36    39    40     9    0.00      0.42007   3
37       36    39    41     9    0.00      0.42007   3
37       36    39    42     9    0.00      0.42007   3
38       36    39    40     9    0.00      0.42007   3
38       36    39    41     9    0.00      0.42007   3
38       36    39    42     9    0.00      0.42007   3
40       39    42    43     9    0.00      0.42007   3
40       39    42    44     9    0.00      0.42007   3
41       39    42    43     9    0.00      0.42007   3
41       39    42    44     9    0.00      0.42007   3
1         7     5     6     4    180.00    28.35469  2
5         8     7    15     4    180.00    2.97049   2
14       16    15     7     4    180.00    2.97049   2
14       20    21    22     4    180.00    2.97049   2
15       18    16    17     4    180.00    2.97049   2
15       21    14    11     4    180.00    2.97049   2
16       20    18    19     4    180.00    2.97049   2
18       21    20    23     4    180.00    2.97049   2

[ moleculetype ]
; molname	nrexcl
SOL		1

[ atoms ]
1       OW_tip4pd    	1	SOL	 OW		1	0        16.00000
2	HW       	1	SOL	HW2		1	0.5900 	  1.00800
3	HW	        1	SOL	HW3		1	0.5900 	  1.00800
4	MW		1	SOL	MW4		1      -1.1800    0.00000


[ settles ]
1	1	0.09572	0.15139


[ virtual_sites3 ]
4	1	2	3	1	0.131937768	0.131937768


[ exclusions ]
1	2	3	4
2	1	3	4
3	1	2	4
4	1	2	3




[ moleculetype ]
; molname       nrexcl
IB+             1       ; big positive ion

[ atoms ]
   1    IB                  1       IB+            IB      1    1.00000



[ moleculetype ]
; molname       nrexcl
CA              1

[ atoms ]
   1    C0                  1       CA             CA      1    2.00000



[ moleculetype ]
; molname       nrexcl
CL              1

[ atoms ]
   1    Cl                  1       CL             CL      1   -1.00000



[ moleculetype ]
; molname       nrexcl
NA              1

[ atoms ]
   1    Na                  1       NA             NA      1    1.00000



[ moleculetype ]
; molname       nrexcl
MG              1

[ atoms ]
   1    MG                  1       MG             MG      1    2.00000



[ moleculetype ]
; molname       nrexcl
K               1

[ atoms ]
   1    K                   1       K              K       1    1.00000



[ moleculetype ]
; molname       nrexcl
RB              1

[ atoms ]
   1    Rb                  1       RB             RB      1    1.00000



[ moleculetype ]
; molname       nrexcl
CS              1

[ atoms ]
   1    Cs                  1       CS             CS      1    1.00000



[ moleculetype ]
; molname       nrexcl
LI              1

[ atoms ]
   1    Li                  1       LI             LI      1    1.00000



[ moleculetype ]
; molname       nrexcl
ZN              1

[ atoms ]
   1    Zn                  1       ZN             ZN      1    2.00000


 [ system ] 
; Name
A-SYNC WITH LIG-47 in water

 [ molecules ] 
; Compound        #mols
Protein_chain_A     1
L47		    1
SOL         8739
NA               7

